 VARIABLES = X,Y,U,V,sy,w,p
 zone     i=         101          j=         101                       F=POINT
   0.00000000       0.00000000       0.00000000       0.00000000       0.00000000       0.00000000       0.00000000    
   9.99999978E-03   0.00000000       0.00000000       0.00000000       0.00000000       7.02541205E-04   0.00000000    
   1.99999996E-02   0.00000000       0.00000000       0.00000000       0.00000000       1.00735028E-03   1.03231960E-05
   2.99999993E-02   0.00000000       0.00000000       0.00000000       0.00000000       2.35603831E-04   3.28997230E-05
   3.99999991E-02   0.00000000       0.00000000       0.00000000       0.00000000      -1.76226941E-03   6.35384276E-05
   4.99999970E-02   0.00000000       0.00000000       0.00000000       0.00000000      -4.92066098E-03   9.71477275E-05
   5.99999987E-02   0.00000000       0.00000000       0.00000000       0.00000000      -9.09801107E-03   1.29400287E-04
   7.00000003E-02   0.00000000       0.00000000       0.00000000       0.00000000      -1.41346920E-02   1.57034912E-04
   7.99999982E-02   0.00000000       0.00000000       0.00000000       0.00000000      -1.98761392E-02   1.77733891E-04
   8.99999961E-02   0.00000000       0.00000000       0.00000000       0.00000000      -2.61814799E-02   1.89916813E-04
   9.99999940E-02   0.00000000       0.00000000       0.00000000       0.00000000      -3.29260565E-02   1.92552223E-04
  0.109999999       0.00000000       0.00000000       0.00000000       0.00000000      -4.00014333E-02   1.85010984E-04
  0.119999997       0.00000000       0.00000000       0.00000000       0.00000000      -4.73142974E-02   1.66955666E-04
  0.129999995       0.00000000       0.00000000       0.00000000       0.00000000      -5.47850244E-02   1.38258212E-04
  0.140000001       0.00000000       0.00000000       0.00000000       0.00000000      -6.23460263E-02   9.89419059E-05
  0.149999991       0.00000000       0.00000000       0.00000000       0.00000000      -6.99402466E-02   4.91338433E-05
  0.159999996       0.00000000       0.00000000       0.00000000       0.00000000      -7.75195286E-02  -1.09654493E-05
  0.170000002       0.00000000       0.00000000       0.00000000       0.00000000      -8.50433335E-02  -8.11092905E-05
  0.179999992       0.00000000       0.00000000       0.00000000       0.00000000      -9.24773142E-02  -1.61020260E-04
  0.189999998       0.00000000       0.00000000       0.00000000       0.00000000      -9.97921824E-02  -2.50405166E-04
  0.199999988       0.00000000       0.00000000       0.00000000       0.00000000     -0.106962547      -3.48965172E-04
  0.209999993       0.00000000       0.00000000       0.00000000       0.00000000     -0.113965929      -4.56398702E-04
  0.219999999       0.00000000       0.00000000       0.00000000       0.00000000     -0.120781794      -5.72410063E-04
  0.229999989       0.00000000       0.00000000       0.00000000       0.00000000     -0.127390772      -6.96706120E-04
  0.239999995       0.00000000       0.00000000       0.00000000       0.00000000     -0.133773953      -8.29000608E-04
  0.250000000       0.00000000       0.00000000       0.00000000       0.00000000     -0.139912114      -9.69012035E-04
  0.259999990       0.00000000       0.00000000       0.00000000       0.00000000     -0.145785362      -1.11645786E-03
  0.269999981       0.00000000       0.00000000       0.00000000       0.00000000     -0.151372463      -1.27105322E-03
  0.280000001       0.00000000       0.00000000       0.00000000       0.00000000     -0.156650603      -1.43250986E-03
  0.289999992       0.00000000       0.00000000       0.00000000       0.00000000     -0.161595047      -1.60052581E-03
  0.299999982       0.00000000       0.00000000       0.00000000       0.00000000     -0.166178927      -1.77478488E-03
  0.310000002       0.00000000       0.00000000       0.00000000       0.00000000     -0.170373186      -1.95494737E-03
  0.319999993       0.00000000       0.00000000       0.00000000       0.00000000     -0.174146593      -2.14064633E-03
  0.329999983       0.00000000       0.00000000       0.00000000       0.00000000     -0.177465782      -2.33148295E-03
  0.340000004       0.00000000       0.00000000       0.00000000       0.00000000     -0.180295408      -2.52701878E-03
  0.349999994       0.00000000       0.00000000       0.00000000       0.00000000     -0.182598561      -2.72677210E-03
  0.359999985       0.00000000       0.00000000       0.00000000       0.00000000     -0.184337154      -2.93020788E-03
  0.370000005       0.00000000       0.00000000       0.00000000       0.00000000     -0.185472265      -3.13674170E-03
  0.379999995       0.00000000       0.00000000       0.00000000       0.00000000     -0.185964897      -3.34573071E-03
  0.389999986       0.00000000       0.00000000       0.00000000       0.00000000     -0.185776651      -3.55647039E-03
  0.399999976       0.00000000       0.00000000       0.00000000       0.00000000     -0.184870392      -3.76819703E-03
  0.409999996       0.00000000       0.00000000       0.00000000       0.00000000     -0.183211252      -3.98008246E-03
  0.419999987       0.00000000       0.00000000       0.00000000       0.00000000     -0.180767417      -4.19123890E-03
  0.429999977       0.00000000       0.00000000       0.00000000       0.00000000     -0.177511141      -4.40071942E-03
  0.439999998       0.00000000       0.00000000       0.00000000       0.00000000     -0.173419744      -4.60752519E-03
  0.449999988       0.00000000       0.00000000       0.00000000       0.00000000     -0.168476671      -4.81060706E-03
  0.459999979       0.00000000       0.00000000       0.00000000       0.00000000     -0.162672386      -5.00888005E-03
  0.469999999       0.00000000       0.00000000       0.00000000       0.00000000     -0.156005472      -5.20122889E-03
  0.479999989       0.00000000       0.00000000       0.00000000       0.00000000     -0.148483366      -5.38652437E-03
  0.489999980       0.00000000       0.00000000       0.00000000       0.00000000     -0.140123352      -5.56363864E-03
  0.500000000       0.00000000       0.00000000       0.00000000       0.00000000     -0.130953178      -5.73146483E-03
  0.509999990       0.00000000       0.00000000       0.00000000       0.00000000     -0.121011809      -5.88894123E-03
  0.519999981       0.00000000       0.00000000       0.00000000       0.00000000     -0.110349983      -6.03508158E-03
  0.529999971       0.00000000       0.00000000       0.00000000       0.00000000      -9.90307778E-02  -6.16902020E-03
  0.539999962       0.00000000       0.00000000       0.00000000       0.00000000      -8.71301517E-02  -6.29006932E-03
  0.550000012       0.00000000       0.00000000       0.00000000       0.00000000      -7.47371987E-02  -6.39781309E-03
  0.560000002       0.00000000       0.00000000       0.00000000       0.00000000      -6.19514696E-02  -6.49225386E-03
  0.569999993       0.00000000       0.00000000       0.00000000       0.00000000      -4.88678105E-02  -6.57399883E-03
  0.579999983       0.00000000       0.00000000       0.00000000       0.00000000      -3.55065577E-02  -6.64435653E-03
  0.589999974       0.00000000       0.00000000       0.00000000       0.00000000      -2.15248019E-02  -6.70455396E-03
  0.599999964       0.00000000       0.00000000       0.00000000       0.00000000      -0.00000000      -6.75083604E-03
  0.610000014       0.00000000       0.00000000       0.00000000       0.00000000      -0.00000000      -6.75083604E-03
  0.620000005       0.00000000       0.00000000       0.00000000       0.00000000      -0.00000000      -6.75083604E-03
  0.629999995       0.00000000       0.00000000       0.00000000       0.00000000      -0.00000000      -6.75083604E-03
  0.639999986       0.00000000       0.00000000       0.00000000       0.00000000      -0.00000000      -6.75083604E-03
  0.649999976       0.00000000       0.00000000       0.00000000       0.00000000      -0.00000000      -6.75083604E-03
  0.659999967       0.00000000       0.00000000       0.00000000       0.00000000      -0.00000000      -6.75083604E-03
  0.669999957       0.00000000       0.00000000       0.00000000       0.00000000      -0.00000000      -6.75083604E-03
  0.680000007       0.00000000       0.00000000       0.00000000       0.00000000      -0.00000000      -6.75083604E-03
  0.689999998       0.00000000       0.00000000       0.00000000       0.00000000      -0.00000000      -6.75083604E-03
  0.699999988       0.00000000       0.00000000       0.00000000       0.00000000      -0.00000000      -6.75083604E-03
  0.709999979       0.00000000       0.00000000       0.00000000       0.00000000      -0.00000000      -6.75083604E-03
  0.719999969       0.00000000       0.00000000       0.00000000       0.00000000      -0.00000000      -6.75083604E-03
  0.729999959       0.00000000       0.00000000       0.00000000       0.00000000      -0.00000000      -6.75083604E-03
  0.740000010       0.00000000       0.00000000       0.00000000       0.00000000      -0.00000000      -6.75083604E-03
  0.750000000       0.00000000       0.00000000       0.00000000       0.00000000      -0.00000000      -6.75083604E-03
  0.759999990       0.00000000       0.00000000       0.00000000       0.00000000      -0.00000000      -6.75083604E-03
  0.769999981       0.00000000       0.00000000       0.00000000       0.00000000      -0.00000000      -6.75083604E-03
  0.779999971       0.00000000       0.00000000       0.00000000       0.00000000      -0.00000000      -6.75083604E-03
  0.789999962       0.00000000       0.00000000       0.00000000       0.00000000      -0.00000000      -6.75083604E-03
  0.799999952       0.00000000       0.00000000       0.00000000       0.00000000      -0.00000000      -6.75083604E-03
  0.810000002       0.00000000       0.00000000       0.00000000       0.00000000      -6.67187560E-04  -6.75083604E-03
  0.819999993       0.00000000       0.00000000       0.00000000       0.00000000      -9.63809318E-04  -6.75320113E-03
  0.829999983       0.00000000       0.00000000       0.00000000       0.00000000      -1.22880354E-03  -6.75561046E-03
  0.839999974       0.00000000       0.00000000       0.00000000       0.00000000      -1.44957774E-03  -6.75814552E-03
  0.849999964       0.00000000       0.00000000       0.00000000       0.00000000      -1.61183381E-03  -6.76084589E-03
  0.859999955       0.00000000       0.00000000       0.00000000       0.00000000      -1.70560612E-03  -6.76365755E-03
  0.870000005       0.00000000       0.00000000       0.00000000       0.00000000      -1.72605412E-03  -6.76646270E-03
  0.879999995       0.00000000       0.00000000       0.00000000       0.00000000      -1.67342252E-03  -6.76911185E-03
  0.889999986       0.00000000       0.00000000       0.00000000       0.00000000      -1.55286188E-03  -6.77144760E-03
  0.899999976       0.00000000       0.00000000       0.00000000       0.00000000      -1.37412664E-03  -6.77332189E-03
  0.909999967       0.00000000       0.00000000       0.00000000       0.00000000      -1.15108909E-03  -6.77461224E-03
  0.919999957       0.00000000       0.00000000       0.00000000       0.00000000      -9.01032006E-04  -6.77523576E-03
  0.930000007       0.00000000       0.00000000       0.00000000       0.00000000      -6.43693726E-04  -6.77515939E-03
  0.939999998       0.00000000       0.00000000       0.00000000       0.00000000      -4.00043704E-04  -6.77441247E-03
  0.949999988       0.00000000       0.00000000       0.00000000       0.00000000      -1.90737890E-04  -6.77309278E-03
  0.959999979       0.00000000       0.00000000       0.00000000       0.00000000      -3.41182131E-05  -6.77137403E-03
  0.969999969       0.00000000       0.00000000       0.00000000       0.00000000       5.66021590E-05  -6.76950393E-03
  0.979999959       0.00000000       0.00000000       0.00000000       0.00000000       7.78307585E-05  -6.76779170E-03
  0.989999950       0.00000000       0.00000000       0.00000000       0.00000000       4.36132650E-05  -6.76656142E-03
   1.00000000       0.00000000       0.00000000       0.00000000       0.00000000       0.00000000      -6.76603103E-03
   0.00000000       9.99999978E-03   0.00000000       0.00000000       0.00000000       7.02541205E-04   0.00000000    
   9.99999978E-03   9.99999978E-03  -2.51881215E-06   2.51837582E-06  -3.51270586E-08  -3.97644442E-04   0.00000000    
   1.99999996E-02   9.99999978E-03  -2.48959964E-07  -1.16734338E-06  -5.03675146E-08  -1.49583572E-03   1.10117753E-05
   2.99999993E-02   9.99999978E-03   1.08993272E-05  -6.92404910E-06  -1.17801910E-08  -3.02853249E-03   3.38709906E-05
   3.99999991E-02   9.99999978E-03   3.20518520E-05  -1.28906622E-05   8.81134667E-08  -5.22836111E-03   6.31764779E-05
   4.99999970E-02   9.99999978E-03   6.28932030E-05  -1.83393549E-05   2.46033039E-07  -8.16745963E-03   9.41406979E-05
   5.99999987E-02   9.99999978E-03   1.02466940E-04  -2.30350761E-05   4.54900544E-07  -1.18250437E-02   1.23015780E-04
   7.00000003E-02   9.99999978E-03   1.49581159E-04  -2.69453194E-05   7.06734568E-07  -1.61339249E-02   1.47029044E-04
   7.99999982E-02   9.99999978E-03   2.03008298E-04  -3.01169675E-05   9.93806907E-07  -2.10074689E-02   1.64197321E-04
   8.99999961E-02   9.99999978E-03   2.61580222E-04  -3.26247973E-05   1.30907392E-06  -2.63541900E-02   1.73143984E-04
   9.99999940E-02   9.99999978E-03   3.24229797E-04  -3.45498847E-05   1.64630285E-06  -3.20852995E-02   1.72948261E-04
  0.109999999       9.99999978E-03   3.90005531E-04  -3.59706028E-05   2.00007162E-06  -3.81184258E-02   1.63029734E-04
  0.119999997       9.99999978E-03   4.58072434E-04  -3.69589761E-05   2.36571486E-06  -4.43791188E-02   1.43060824E-04
  0.129999995       9.99999978E-03   5.27705939E-04  -3.75793206E-05   2.73925116E-06  -5.08013107E-02   1.12900525E-04
  0.140000001       9.99999978E-03   5.98282204E-04  -3.78880504E-05   3.11730128E-06  -5.73270209E-02   7.25447098E-05
  0.149999991       9.99999978E-03   6.69267494E-04  -3.79337507E-05   3.49701213E-06  -6.39057979E-02   2.20884704E-05
  0.159999996       9.99999978E-03   7.40205985E-04  -3.77577198E-05   3.87597629E-06  -7.04939365E-02  -3.83036895E-05
  0.170000002       9.99999978E-03   8.10709316E-04  -3.73944677E-05   4.25216649E-06  -7.70536289E-02  -1.08418062E-04
  0.179999992       9.99999978E-03   8.80444713E-04  -3.68721194E-05   4.62386561E-06  -8.35520849E-02  -1.88009828E-04
  0.189999998       9.99999978E-03   9.49125504E-04  -3.62130777E-05   4.98960890E-06  -8.99606794E-02  -2.76813458E-04
  0.199999988       9.99999978E-03   1.01650076E-03  -3.54343683E-05   5.34812716E-06  -9.62541252E-02  -3.74553638E-04
  0.209999993       9.99999978E-03   1.08234677E-03  -3.45481130E-05   5.69829626E-06 -0.102409676      -4.80948889E-04
  0.219999999       9.99999978E-03   1.14645821E-03  -3.35621044E-05   6.03908939E-06 -0.108406410      -5.95718040E-04
  0.229999989       9.99999978E-03   1.20864122E-03  -3.24803987E-05   6.36953837E-06 -0.114224568      -7.18579453E-04
  0.239999995       9.99999978E-03   1.26870687E-03  -3.13033743E-05   6.68869734E-06 -0.119844921      -8.49252567E-04
  0.250000000       9.99999978E-03   1.32646435E-03  -3.00285374E-05   6.99560587E-06 -0.125248268      -9.87458508E-04
  0.259999990       9.99999978E-03   1.38171692E-03  -2.86508566E-05   7.28926807E-06 -0.130414963      -1.13291421E-03
  0.269999981       9.99999978E-03   1.43425702E-03  -2.71631052E-05   7.56862300E-06 -0.135324478      -1.28533284E-03
  0.280000001       9.99999978E-03   1.48386299E-03  -2.55564373E-05   7.83253017E-06 -0.139955148      -1.44441891E-03
  0.289999992       9.99999978E-03   1.53029594E-03  -2.38208031E-05   8.07975175E-06 -0.144283906      -1.60986441E-03
  0.299999982       9.99999978E-03   1.57329906E-03  -2.19453796E-05   8.30894624E-06 -0.148286089      -1.78134302E-03
  0.310000002       9.99999978E-03   1.61259505E-03  -1.99191618E-05   8.51865934E-06 -0.151935399      -1.95850781E-03
  0.319999993       9.99999978E-03   1.64788798E-03  -1.77314632E-05   8.70732947E-06 -0.155203879      -2.14098184E-03
  0.329999983       9.99999978E-03   1.67886273E-03  -1.53720521E-05   8.87328861E-06 -0.158061996      -2.32835789E-03
  0.340000004       9.99999978E-03   1.70518726E-03  -1.28319698E-05   9.01477051E-06 -0.160478815      -2.52019009E-03
  0.349999994       9.99999978E-03   1.72651547E-03  -1.01043497E-05   9.12992800E-06 -0.162422240      -2.71599065E-03
  0.359999985       9.99999978E-03   1.74249162E-03  -7.18423507E-06   9.21685751E-06 -0.163859442      -2.91522336E-03
  0.370000005       9.99999978E-03   1.75275316E-03  -4.06935214E-06   9.27361270E-06 -0.164757133      -3.11730406E-03
  0.379999995       9.99999978E-03   1.75693771E-03  -7.60974217E-07   9.29824455E-06 -0.165082186      -3.32159386E-03
  0.389999986       9.99999978E-03   1.75468926E-03   2.73626029E-06   9.28883219E-06 -0.164802209      -3.52739706E-03
  0.399999976       9.99999978E-03   1.74566486E-03   6.41348379E-06   9.24351934E-06 -0.163886160      -3.73396254E-03
  0.409999996       9.99999978E-03   1.72954320E-03   1.02574177E-05   9.16056251E-06 -0.162305042      -3.94048123E-03
  0.419999987       9.99999978E-03   1.70603185E-03   1.42502813E-05   9.03837099E-06 -0.160032719      -4.14608978E-03
  0.429999977       9.99999978E-03   1.67487713E-03   1.83692009E-05   8.87555689E-06 -0.157046720      -4.34987061E-03
  0.439999998       9.99999978E-03   1.63587288E-03   2.25861641E-05   8.67098697E-06 -0.153328985      -4.55085840E-03
  0.449999988       9.99999978E-03   1.58886996E-03   2.68683834E-05   8.42383361E-06 -0.148866728      -4.74804547E-03
  0.459999979       9.99999978E-03   1.53378444E-03   3.11780241E-05   8.13361930E-06 -0.143653184      -4.94039059E-03
  0.469999999       9.99999978E-03   1.47060736E-03   3.54725453E-05   7.80027312E-06 -0.137688398      -5.12682786E-03
  0.479999989       9.99999978E-03   1.39941077E-03   3.97052863E-05   7.42416842E-06 -0.130979821      -5.30628208E-03
  0.489999980       9.99999978E-03   1.32035662E-03   4.38255047E-05   7.00616738E-06 -0.123542890      -5.47767757E-03
  0.500000000       9.99999978E-03   1.23370078E-03   4.77788490E-05   6.54765836E-06 -0.115401380      -5.63996146E-03
  0.509999990       9.99999978E-03   1.13979809E-03   5.15079591E-05   6.05059040E-06 -0.106587566      -5.79211954E-03
  0.519999981       9.99999978E-03   1.03910337E-03   5.49525794E-05   5.51749918E-06  -9.71419886E-02  -5.93320467E-03
  0.529999971       9.99999978E-03   9.32170136E-04   5.80495907E-05   4.95153881E-06  -8.71125609E-02  -6.06236700E-03
  0.539999962       9.99999978E-03   8.19643203E-04   6.07339425E-05   4.35650736E-06  -7.65523165E-02  -6.17889641E-03
  0.550000012       9.99999978E-03   7.02237478E-04   6.29466958E-05   3.73685998E-06  -6.55139163E-02  -6.28228486E-03
  0.560000002       9.99999978E-03   5.80682477E-04   6.46734770E-05   3.09757343E-06  -5.40360622E-02  -6.37232140E-03
  0.569999993       9.99999978E-03   4.55579226E-04   6.61122831E-05   2.44339049E-06  -4.21092473E-02  -6.44923141E-03
  0.579999983       9.99999978E-03   3.27028014E-04   6.83575199E-05   1.77532775E-06  -2.95887981E-02  -6.51384983E-03
  0.589999974       9.99999978E-03   1.93717162E-04   8.87663919E-05   1.07624010E-06  -1.59831010E-02  -6.56760251E-03
  0.599999964       9.99999978E-03   0.00000000       5.38120075E-05   0.00000000      -1.54773530E-03  -6.66213734E-03
  0.610000014       9.99999978E-03   0.00000000       0.00000000       0.00000000       5.05752629E-04  -6.46842038E-03
  0.620000005       9.99999978E-03   0.00000000       0.00000000       0.00000000       9.98991542E-04  -6.46842038E-03
  0.629999995       9.99999978E-03   0.00000000       0.00000000       0.00000000       1.46751746E-03  -6.46842038E-03
  0.639999986       9.99999978E-03   0.00000000       0.00000000       0.00000000       1.89975090E-03  -6.46842038E-03
  0.649999976       9.99999978E-03   0.00000000       0.00000000       0.00000000       2.28502182E-03  -6.46842038E-03
  0.659999967       9.99999978E-03   0.00000000       0.00000000       0.00000000       2.61383574E-03  -6.46842038E-03
  0.669999957       9.99999978E-03   0.00000000       0.00000000       0.00000000       2.87810643E-03  -6.46842038E-03
  0.680000007       9.99999978E-03   0.00000000       0.00000000       0.00000000       3.07135540E-03  -6.46842038E-03
  0.689999998       9.99999978E-03   0.00000000       0.00000000       0.00000000       3.18886805E-03  -6.46842038E-03
  0.699999988       9.99999978E-03   0.00000000       0.00000000       0.00000000       3.22780502E-03  -6.46842038E-03
  0.709999979       9.99999978E-03   0.00000000       0.00000000       0.00000000       3.18726618E-03  -6.46842038E-03
  0.719999969       9.99999978E-03   0.00000000       0.00000000       0.00000000       3.06830858E-03  -6.46842038E-03
  0.729999959       9.99999978E-03   0.00000000       0.00000000       0.00000000       2.87391292E-03  -6.46842038E-03
  0.740000010       9.99999978E-03   0.00000000       0.00000000       0.00000000       2.60890601E-03  -6.46842038E-03
  0.750000000       9.99999978E-03   0.00000000       0.00000000       0.00000000       2.27983831E-03  -6.46842038E-03
  0.759999990       9.99999978E-03   0.00000000       0.00000000       0.00000000       1.89482106E-03  -6.46842038E-03
  0.769999981       9.99999978E-03   0.00000000       0.00000000       0.00000000       1.46332383E-03  -6.46842038E-03
  0.779999971       9.99999978E-03   0.00000000       0.00000000       0.00000000       9.95944720E-04  -6.46842038E-03
  0.789999962       9.99999978E-03   0.00000000       0.00000000       0.00000000       5.04150754E-04  -6.46842038E-03
  0.799999952       9.99999978E-03   0.00000000      -1.66796895E-06   0.00000000       7.22400728E-06  -6.46842038E-03
  0.810000002       9.99999978E-03   5.63166941E-06  -2.40952340E-06   3.33593775E-08  -4.31910768E-04  -6.46278867E-03
  0.819999993       9.99999978E-03   8.61887656E-06  -1.40403995E-06   4.81904650E-08  -7.44152174E-04  -6.46682177E-03
  0.829999983       9.99999978E-03   1.12288826E-05  -1.21442099E-06   6.14401756E-08  -9.94863105E-04  -6.46871049E-03
  0.839999974       9.99999978E-03   1.33722851E-05  -9.57575708E-07   7.24788833E-08  -1.19562040E-03  -6.47079991E-03
  0.849999964       9.99999978E-03   1.49534490E-05  -6.40071107E-07   8.05916898E-08  -1.34461408E-03  -6.47308072E-03
  0.859999955       9.99999978E-03   1.59009869E-05  -2.85550783E-07   8.52803055E-08  -1.43792899E-03  -6.47547469E-03
  0.870000005       9.99999978E-03   1.61796288E-05   8.04590172E-08   8.63027054E-08  -1.47333159E-03  -6.47786213E-03
  0.879999995       9.99999978E-03   1.57946088E-05   4.32980585E-07   8.36711251E-08  -1.45153457E-03  -6.48010336E-03
  0.889999986       9.99999978E-03   1.47924602E-05   7.48239870E-07   7.76430937E-08  -1.37654273E-03  -6.48205634E-03
  0.899999976       9.99999978E-03   1.32592832E-05   1.00443197E-06   6.87063277E-08  -1.25557906E-03  -6.48358976E-03
  0.909999967       9.99999978E-03   1.13166625E-05   1.18273647E-06   5.75544554E-08  -1.09873351E-03  -6.48459606E-03
  0.919999957       9.99999978E-03   9.11525422E-06   1.26848840E-06   4.50515998E-08  -9.18378064E-04  -6.48500212E-03
  0.930000007       9.99999978E-03   6.82598875E-06   1.25247072E-06   3.21846869E-08  -7.28348037E-04  -6.48478046E-03
  0.939999998       9.99999978E-03   4.62875460E-06   1.13238968E-06   2.00021848E-08  -5.42879337E-04  -6.48395671E-03
  0.949999988       9.99999978E-03   2.69828479E-06   9.14813711E-07   9.53689394E-09  -3.75262112E-04  -6.48261746E-03
  0.959999979       9.99999978E-03   1.18652554E-06   6.18350100E-07   1.70591052E-09  -2.36136562E-04  -6.48091454E-03
  0.969999969       9.99999978E-03   1.99826786E-07   2.79872410E-07  -2.83010793E-09  -1.31313398E-04  -6.47906587E-03
  0.979999959       9.99999978E-03  -2.32417420E-07  -3.24722365E-08  -3.89153776E-09  -5.90703239E-05  -6.47734944E-03
  0.989999950       9.99999978E-03  -2.03716382E-07  -1.94576899E-07  -2.18066321E-09  -7.56786812E-06  -6.47608424E-03
   1.00000000       9.99999978E-03   0.00000000       0.00000000       0.00000000       4.36132650E-05  -6.47557387E-03
   0.00000000       1.99999996E-02   0.00000000       0.00000000       0.00000000       1.00752478E-03  -1.03372031E-05
   9.99999978E-03   1.99999996E-02   1.18548814E-06   2.48959964E-07  -5.03762401E-08  -1.49981386E-03  -1.03372031E-05
   1.99999996E-02   1.99999996E-02   1.34828524E-05  -1.34181391E-05  -4.97919928E-09  -3.56449280E-03   2.89769127E-06
   2.99999993E-02   1.99999996E-02   4.10999382E-05  -3.23008135E-05   2.17986539E-07  -5.62550453E-03   2.36023789E-05
   3.99999991E-02   1.99999996E-02   8.53793827E-05  -5.19938767E-05   6.41037047E-07  -7.95517955E-03   4.82282267E-05
   4.99999970E-02   1.99999996E-02   1.45929982E-04  -7.04150880E-05   1.25786403E-06  -1.06958663E-02   7.34399655E-05
   5.99999987E-02   1.99999996E-02   2.21408554E-04  -8.66879491E-05   2.04933872E-06  -1.39010549E-02   9.63987331E-05
   7.00000003E-02   1.99999996E-02   3.10021016E-04  -1.00541358E-04   2.99162298E-06  -1.75690465E-02   1.14839713E-04
   7.99999982E-02   1.99999996E-02   4.09823668E-04  -1.11999077E-04   4.06016579E-06  -2.16665324E-02   1.27035295E-04
   8.99999961E-02   1.99999996E-02   5.18894463E-04  -1.21221507E-04   5.23160452E-06  -2.61438396E-02   1.31714769E-04
   9.99999940E-02   1.99999996E-02   6.35424745E-04  -1.28425294E-04   6.48459581E-06  -3.09443567E-02   1.27978870E-04
  0.109999999       1.99999996E-02   7.57763453E-04  -1.33842637E-04   7.80011032E-06  -3.60101759E-02   1.15221723E-04
  0.119999997       1.99999996E-02   8.84433161E-04  -1.37700408E-04   9.16144836E-06  -4.12853211E-02   9.30659298E-05
  0.129999995       1.99999996E-02   1.01413124E-03  -1.40209799E-04   1.05541185E-05  -4.67174985E-02   6.13112861E-05
  0.140000001       1.99999996E-02   1.14571978E-03  -1.41561584E-04   1.19656443E-05  -5.22589125E-02   1.98894631E-05
  0.149999991       1.99999996E-02   1.27821288E-03  -1.41923781E-04   1.33853500E-05  -5.78664988E-02  -3.11646327E-05
  0.159999996       1.99999996E-02   1.41075847E-03  -1.41441793E-04   1.48041199E-05  -6.35018051E-02  -9.17443176E-05
  0.170000002       1.99999996E-02   1.54262281E-03  -1.40238713E-04   1.62141860E-05  -6.91306442E-02  -1.61685297E-04
  0.179999992       1.99999996E-02   1.67317048E-03  -1.38416188E-04   1.76088943E-05  -7.47226179E-02  -2.40787835E-04
  0.189999998       1.99999996E-02   1.80184830E-03  -1.36056042E-04   1.89825096E-05  -8.02506134E-02  -3.28823779E-04
  0.199999988       1.99999996E-02   1.92816905E-03  -1.33221241E-04   2.03300151E-05  -8.56902003E-02  -4.25546372E-04
  0.209999993       1.99999996E-02   2.05169385E-03  -1.29957421E-04   2.16469343E-05  -9.10191238E-02  -5.30699966E-04
  0.219999999       1.99999996E-02   2.17201933E-03  -1.26294530E-04   2.29291636E-05  -9.62167159E-02  -6.44018641E-04
  0.229999989       1.99999996E-02   2.28876341E-03  -1.22248646E-04   2.41728249E-05 -0.101263419      -7.65233475E-04
  0.239999995       1.99999996E-02   2.40155309E-03  -1.17823038E-04   2.53741364E-05 -0.106140263      -8.94069672E-04
  0.250000000       1.99999996E-02   2.51001515E-03  -1.13010086E-04   2.65292856E-05 -0.110828467      -1.03024708E-03
  0.259999990       1.99999996E-02   2.61376472E-03  -1.07792766E-04   2.76343380E-05 -0.115309052      -1.17348123E-03
  0.269999981       1.99999996E-02   2.71239853E-03  -1.02146078E-04   2.86851409E-05 -0.119562529      -1.32347934E-03
  0.280000001       1.99999996E-02   2.80548888E-03  -9.60389152E-05   2.96772596E-05 -0.123568617      -1.47993432E-03
  0.289999992       1.99999996E-02   2.89257709E-03  -8.94360710E-05   3.06059192E-05 -0.127306059      -1.64252799E-03
  0.299999982       1.99999996E-02   2.97317258E-03  -8.22990842E-05   3.14659810E-05 -0.130752474      -1.81091914E-03
  0.310000002       1.99999996E-02   3.04674893E-03  -7.45889338E-05   3.22519008E-05 -0.133884296      -1.98474759E-03
  0.319999993       1.99999996E-02   3.11274524E-03  -6.62676030E-05   3.29577597E-05 -0.136676788      -2.16362299E-03
  0.329999983       1.99999996E-02   3.17056710E-03  -5.72992576E-05   3.35772529E-05 -0.139104098      -2.34712381E-03
  0.340000004       1.99999996E-02   3.21959029E-03  -4.76527930E-05   3.41037448E-05 -0.141139388      -2.53479229E-03
  0.349999994       1.99999996E-02   3.25916614E-03  -3.73043804E-05   3.45303088E-05 -0.142755106      -2.72612972E-03
  0.359999985       1.99999996E-02   3.28862807E-03  -2.62376489E-05   3.48498324E-05 -0.143923223      -2.92059639E-03
  0.370000005       1.99999996E-02   3.30729946E-03  -1.44460500E-05   3.50550617E-05 -0.144615576      -3.11760441E-03
  0.379999995       1.99999996E-02   3.31450556E-03  -1.93613232E-06   3.51387534E-05 -0.144804373      -3.31651606E-03
  0.389999986       1.99999996E-02   3.30958352E-03   1.12728230E-05   3.50937844E-05 -0.144462526      -3.51664517E-03
  0.399999976       1.99999996E-02   3.29189701E-03   2.51460733E-05   3.49132970E-05 -0.143564388      -3.71725205E-03
  0.409999996       1.99999996E-02   3.26085021E-03   3.96330506E-05   3.45908629E-05 -0.142086163      -3.91754834E-03
  0.419999987       1.99999996E-02   3.21590272E-03   5.46660885E-05   3.41206360E-05 -0.140006632      -4.11669817E-03
  0.429999977       1.99999996E-02   3.15658608E-03   7.01589670E-05   3.34975412E-05 -0.137307763      -4.31381818E-03
  0.439999998       1.99999996E-02   3.08252196E-03   8.60070941E-05   3.27174566E-05 -0.133975312      -4.50798310E-03