 VARIABLES = X,Y,T_N
 zone     i=          78          j=          78                       F=POINT
   6.4102564102564100E-003  -4.9358976703399839E-004   302.92182115742520     
   6.4102564102564100E-003  -4.8076925360454386E-004   302.50449126014445     
   6.4102564102564100E-003  -4.6794874017508939E-004   302.11259671283921     
   6.4102564102564100E-003  -4.5512822674563492E-004   301.75599357982895     
   6.4102564102564100E-003  -4.4230771331618039E-004   301.43991448760426     
   6.4102564102564100E-003  -4.2948719988672587E-004   301.16598583000979     
   6.4102564102564100E-003  -4.1666668645727134E-004   300.93320619004800     
   6.4102564102564100E-003  -4.0384617302781687E-004   300.73881163558127     
   6.4102564102564100E-003  -3.9102565959836240E-004   300.57899107969939     
   6.4102564102564100E-003  -3.7820514616890787E-004   300.44944252321130     
   6.4102564102564100E-003  -3.6538463273945334E-004   300.34577930469788     
   6.4102564102564100E-003  -3.5256411930999882E-004   300.26380598727337     
   6.4102564102564100E-003  -3.3974360588054435E-004   300.19968807201900     
   6.4102564102564100E-003  -3.2692309245108987E-004   300.15004017038319     
   6.4102564102564100E-003  -3.1410257902163535E-004   300.11195516249103     
   6.4102564102564100E-003  -3.0128206559218082E-004   300.08299344197712     
   6.4102564102564100E-003  -2.8846155216272630E-004   300.06114747659819     
   6.4102564102564100E-003  -2.7564103873327182E-004   300.04479316440506     
   6.4102564102564100E-003  -2.6282052530381735E-004   300.03263615858253     
   6.4102564102564100E-003  -2.5000001187436283E-004   300.02365861178072     
   6.4102564102564100E-003  -2.3717949844490830E-004   300.01706967493561     
   6.4102564102564100E-003  -2.2435898501545383E-004   300.01226152707045     
   6.4102564102564100E-003  -2.1153847158599930E-004   300.00877162675266     
   6.4102564102564100E-003  -1.9871795815654483E-004   300.00625116690912     
   6.4102564102564100E-003  -1.8589744472709030E-004   300.00443929044690     
   6.4102564102564100E-003  -1.7307693129763578E-004   300.00314240414309     
   6.4102564102564100E-003  -1.6025641786818131E-004   300.00221784697771     
   6.4102564102564100E-003  -1.4743590443872678E-004   300.00156117591524     
   6.4102564102564100E-003  -1.3461539100927231E-004   300.00109639002557     
   6.4102564102564100E-003  -1.2179487757981778E-004   300.00076849694568     
   6.4102564102564100E-003  -1.0897436415036328E-004   300.00053791698718     
   6.4102564102564100E-003  -9.6153850720908770E-005   300.00037630924976     
   6.4102564102564100E-003  -8.3333337291454271E-005   300.00026348511869     
   6.4102564102564100E-003  -7.0512823861999758E-005   300.00018514488573     
   6.4102564102564100E-003  -5.7692310432545259E-005   300.00013123232253     
   6.4102564102564100E-003  -4.4871797003090760E-005   300.00009475045294     
   6.4102564102564100E-003  -3.2051283573636248E-005   300.00007092072605     
   6.4102564102564100E-003  -1.9230770144181749E-005   300.00005659879042     
   6.4102564102564100E-003  -6.4102567147272436E-006   300.00004988465224     
   6.4102564102564100E-003   6.4102567147272605E-006   300.00004988465224     
   6.4102564102564100E-003   1.9230770144181766E-005   300.00005659879042     
   6.4102564102564100E-003   3.2051283573636275E-005   300.00007092072610     
   6.4102564102564100E-003   4.4871797003090774E-005   300.00009475045300     
   6.4102564102564100E-003   5.7692310432545273E-005   300.00013123232259     
   6.4102564102564100E-003   7.0512823861999785E-005   300.00018514488579     
   6.4102564102564100E-003   8.3333337291454284E-005   300.00026348511881     
   6.4102564102564100E-003   9.6153850720908784E-005   300.00037630924987     
   6.4102564102564100E-003   1.0897436415036330E-004   300.00053791698735     
   6.4102564102564100E-003   1.2179487757981780E-004   300.00076849694585     
   6.4102564102564100E-003   1.3461539100927231E-004   300.00109639002574     
   6.4102564102564100E-003   1.4743590443872681E-004   300.00156117591541     
   6.4102564102564100E-003   1.6025641786818131E-004   300.00221784697789     
   6.4102564102564100E-003   1.7307693129763583E-004   300.00314240414320     
   6.4102564102564100E-003   1.8589744472709030E-004   300.00443929044707     
   6.4102564102564100E-003   1.9871795815654483E-004   300.00625116690924     
   6.4102564102564100E-003   2.1153847158599930E-004   300.00877162675278     
   6.4102564102564100E-003   2.2435898501545383E-004   300.01226152707056     
   6.4102564102564100E-003   2.3717949844490835E-004   300.01706967493567     
   6.4102564102564100E-003   2.5000001187436283E-004   300.02365861178077     
   6.4102564102564100E-003   2.6282052530381735E-004   300.03263615858265     
   6.4102564102564100E-003   2.7564103873327188E-004   300.04479316440518     
   6.4102564102564100E-003   2.8846155216272635E-004   300.06114747659831     
   6.4102564102564100E-003   3.0128206559218082E-004   300.08299344197729     
   6.4102564102564100E-003   3.1410257902163535E-004   300.11195516249126     
   6.4102564102564100E-003   3.2692309245108987E-004   300.15004017038342     
   6.4102564102564100E-003   3.3974360588054440E-004   300.19968807201923     
   6.4102564102564100E-003   3.5256411930999887E-004   300.26380598727366     
   6.4102564102564100E-003   3.6538463273945334E-004   300.34577930469828     
   6.4102564102564100E-003   3.7820514616890787E-004   300.44944252321170     
   6.4102564102564100E-003   3.9102565959836240E-004   300.57899107969990     
   6.4102564102564100E-003   4.0384617302781692E-004   300.73881163558184     
   6.4102564102564100E-003   4.1666668645727140E-004   300.93320619004868     
   6.4102564102564100E-003   4.2948719988672587E-004   301.16598583001064     
   6.4102564102564100E-003   4.4230771331618039E-004   301.43991448760517     
   6.4102564102564100E-003   4.5512822674563492E-004   301.75599357982986     
   6.4102564102564100E-003   4.6794874017508945E-004   302.11259671284017     
   6.4102564102564100E-003   4.8076925360454392E-004   302.50449126014536     
   6.4102564102564100E-003   4.9358976703399839E-004   302.92182115742605     
   1.9230769230769232E-002  -4.9358976703399839E-004   303.99141271578293     
   1.9230769230769232E-002  -4.8076925360454386E-004   303.56773050344361     
   1.9230769230769232E-002  -4.6794874017508939E-004   303.15484643709561     
   1.9230769230769232E-002  -4.5512822674563492E-004   302.75937339226158     
   1.9230769230769232E-002  -4.4230771331618039E-004   302.38705590158764     
   1.9230769230769232E-002  -4.2948719988672587E-004   302.04246396170112     
   1.9230769230769232E-002  -4.1666668645727134E-004   301.72880397070054     
   1.9230769230769232E-002  -4.0384617302781687E-004   301.44786888996708     
   1.9230769230769232E-002  -3.9102565959836240E-004   301.20011539886917     
   1.9230769230769232E-002  -3.7820514616890787E-004   300.98483680362466     
   1.9230769230769232E-002  -3.6538463273945334E-004   300.80039387964513     
   1.9230769230769232E-002  -3.5256411930999882E-004   300.64446783053393     
   1.9230769230769232E-002  -3.3974360588054435E-004   300.51430643662457     
   1.9230769230769232E-002  -3.2692309245108987E-004   300.40694325982685     
   1.9230769230769232E-002  -3.1410257902163535E-004   300.31937840182633     
   1.9230769230769232E-002  -3.0128206559218082E-004   300.24871657696224     
   1.9230769230769232E-002  -2.8846155216272630E-004   300.19226364885753     
   1.9230769230769232E-002  -2.7564103873327182E-004   300.14758626056516     
   1.9230769230769232E-002  -2.6282052530381735E-004   300.11254101421002     
   1.9230769230769232E-002  -2.5000001187436283E-004   300.08528020772326     
   1.9230769230769232E-002  -2.3717949844490830E-004   300.06424081266078     
   1.9230769230769232E-002  -2.2435898501545383E-004   300.04812253311746     
   1.9230769230769232E-002  -2.1153847158599930E-004   300.03585970183894     
   1.9230769230769232E-002  -1.9871795815654483E-004   300.02659064550090     
   1.9230769230769232E-002  -1.8589744472709030E-004   300.01962711335119     
   1.9230769230769232E-002  -1.7307693129763578E-004   300.01442547973386     
   1.9230769230769232E-002  -1.6025641786818131E-004   300.01056072629592     
   1.9230769230769232E-002  -1.4743590443872678E-004   300.00770368053549     
   1.9230769230769232E-002  -1.3461539100927231E-004   300.00560161411403     
   1.9230769230769232E-002  -1.2179487757981778E-004   300.00406205990987     
   1.9230769230769232E-002  -1.0897436415036328E-004   300.00293956252614     
   1.9230769230769232E-002  -9.6153850720908770E-005   300.00212500638781     
   1.9230769230769232E-002  -8.3333337291454271E-005   300.00153714611986     
   1.9230769230769232E-002  -7.0512823861999758E-005   300.00111597760412     
   1.9230769230769232E-002  -5.7692310432545259E-005   300.00081762141559     
   1.9230769230769232E-002  -4.4871797003090760E-005   300.00061043360512     
   1.9230769230769232E-002  -3.2051283573636248E-005   300.00047210559023     
   1.9230769230769232E-002  -1.9230770144181749E-005   300.00038756131596     
   1.9230769230769232E-002  -6.4102567147272436E-006   300.00034750378518     
   1.9230769230769232E-002   6.4102567147272605E-006   300.00034750378518     
   1.9230769230769232E-002   1.9230770144181766E-005   300.00038756131596     
   1.9230769230769232E-002   3.2051283573636275E-005   300.00047210559023     
   1.9230769230769232E-002   4.4871797003090774E-005   300.00061043360517     
   1.9230769230769232E-002   5.7692310432545273E-005   300.00081762141565     
   1.9230769230769232E-002   7.0512823861999785E-005   300.00111597760423     
   1.9230769230769232E-002   8.3333337291454284E-005   300.00153714612003     
   1.9230769230769232E-002   9.6153850720908784E-005   300.00212500638804     
   1.9230769230769232E-002   1.0897436415036330E-004   300.00293956252642     
   1.9230769230769232E-002   1.2179487757981780E-004   300.00406205991015     
   1.9230769230769232E-002   1.3461539100927231E-004   300.00560161411437     
   1.9230769230769232E-002   1.4743590443872681E-004   300.00770368053583     
   1.9230769230769232E-002   1.6025641786818131E-004   300.01056072629621     
   1.9230769230769232E-002   1.7307693129763583E-004   300.01442547973409     
   1.9230769230769232E-002   1.8589744472709030E-004   300.01962711335148     
   1.9230769230769232E-002   1.9871795815654483E-004   300.02659064550113     
   1.9230769230769232E-002   2.1153847158599930E-004   300.03585970183917     
   1.9230769230769232E-002   2.2435898501545383E-004   300.04812253311769     
   1.9230769230769232E-002   2.3717949844490835E-004   300.06424081266090     
   1.9230769230769232E-002   2.5000001187436283E-004   300.08528020772337     
   1.9230769230769232E-002   2.6282052530381735E-004   300.11254101421019     
   1.9230769230769232E-002   2.7564103873327188E-004   300.14758626056533     
   1.9230769230769232E-002   2.8846155216272635E-004   300.19226364885776     
   1.9230769230769232E-002   3.0128206559218082E-004   300.24871657696252     
   1.9230769230769232E-002   3.1410257902163535E-004   300.31937840182661     
   1.9230769230769232E-002   3.2692309245108987E-004   300.40694325982719     
   1.9230769230769232E-002   3.3974360588054440E-004   300.51430643662502     
   1.9230769230769232E-002   3.5256411930999887E-004   300.64446783053444     
   1.9230769230769232E-002   3.6538463273945334E-004   300.80039387964575     
   1.9230769230769232E-002   3.7820514616890787E-004   300.98483680362540     
   1.9230769230769232E-002   3.9102565959836240E-004   301.20011539886997     
   1.9230769230769232E-002   4.0384617302781692E-004   301.44786888996816     
   1.9230769230769232E-002   4.1666668645727140E-004   301.72880397070173     
   1.9230769230769232E-002   4.2948719988672587E-004   302.04246396170242     
   1.9230769230769232E-002   4.4230771331618039E-004   302.38705590158906     
   1.9230769230769232E-002   4.5512822674563492E-004   302.75937339226311     
   1.9230769230769232E-002   4.6794874017508945E-004   303.15484643709721     
   1.9230769230769232E-002   4.8076925360454392E-004   303.56773050344520     
   1.9230769230769232E-002   4.9358976703399839E-004   303.99141271578452     
   3.2051282051282048E-002  -4.9358976703399839E-004   304.71190560019357     
   3.2051282051282048E-002  -4.8076925360454386E-004   304.28702613630156     
   3.2051282051282048E-002  -4.6794874017508939E-004   303.86945176324730     
   3.2051282051282048E-002  -4.5512822674563492E-004   303.46381503663042     
   3.2051282051282048E-002  -4.4230771331618039E-004   303.07443510175557     
   3.2051282051282048E-002  -4.2948719988672587E-004   302.70517673124596     
   3.2051282051282048E-002  -4.1666668645727134E-004   302.35930627741379     
   3.2051282051282048E-002  -4.0384617302781687E-004   302.03936994747210     
   3.2051282051282048E-002  -3.9102565959836240E-004   301.74711395679446     
   3.2051282051282048E-002  -3.7820514616890787E-004   301.48345726685648     
   3.2051282051282048E-002  -3.6538463273945334E-004   301.24851828506871     
   3.2051282051282048E-002  -3.5256411930999882E-004   301.04168906548205     
   3.2051282051282048E-002  -3.3974360588054435E-004   300.86174530431072     
   3.2051282051282048E-002  -3.2692309245108987E-004   300.70697803513616     
   3.2051282051282048E-002  -3.1410257902163535E-004   300.57533304193220     
   3.2051282051282048E-002  -3.0128206559218082E-004   300.46454593223729     
   3.2051282051282048E-002  -2.8846155216272630E-004   300.37226376469800     
   3.2051282051282048E-002  -2.7564103873327182E-004   300.29614740259512     
   3.2051282051282048E-002  -2.6282052530381735E-004   300.23395183926027     
   3.2051282051282048E-002  -2.5000001187436283E-004   300.18358428386745     
   3.2051282051282048E-002  -2.3717949844490830E-004   300.14314165971058     
   3.2051282051282048E-002  -2.2435898501545383E-004   300.11093034396850     
   3.2051282051282048E-002  -2.1153847158599930E-004   300.08547155114883     
   3.2051282051282048E-002  -1.9871795815654483E-004   300.06549586153028     
   3.2051282051282048E-002  -1.8589744472709030E-004   300.04993016286619     
   3.2051282051282048E-002  -1.7307693129763578E-004   300.03787983956579     
   3.2051282051282048E-002  -1.6025641786818131E-004   300.02860851641731     
   3.2051282051282048E-002  -1.4743590443872678E-004   300.02151712371909     
   3.2051282051282048E-002  -1.3461539100927231E-004   300.01612355053385     
   3.2051282051282048E-002  -1.2179487757981778E-004   300.01204372282939     
   3.2051282051282048E-002  -1.0897436415036328E-004   300.00897459599679     
   3.2051282051282048E-002  -9.6153850720908770E-005   300.00667928682077     
   3.2051282051282048E-002  -8.3333337291454271E-005   300.00497438094806     
   3.2051282051282048E-002  -7.0512823861999758E-005   300.00371932687716     
   3.2051282051282048E-002  -5.7692310432545259E-005   300.00280775383834     
   3.2051282051282048E-002  -4.4871797003090760E-005   300.00216051650511     
   3.2051282051282048E-002  -3.2051283573636248E-005   300.00172026361787     
   3.2051282051282048E-002  -1.9230770144181749E-005   300.00144734158886     
   3.2051282051282048E-002  -6.4102567147272436E-006   300.00131687125617     
   3.2051282051282048E-002   6.4102567147272605E-006   300.00131687125617     
   3.2051282051282048E-002   1.9230770144181766E-005   300.00144734158897     
   3.2051282051282048E-002   3.2051283573636275E-005   300.00172026361798     
   3.2051282051282048E-002   4.4871797003090774E-005   300.00216051650523     
   3.2051282051282048E-002   5.7692310432545273E-005   300.00280775383851     
   3.2051282051282048E-002   7.0512823861999785E-005   300.00371932687739     
   3.2051282051282048E-002   8.3333337291454284E-005   300.00497438094834     
   3.2051282051282048E-002   9.6153850720908784E-005   300.00667928682117     
   3.2051282051282048E-002   1.0897436415036330E-004   300.00897459599724     
   3.2051282051282048E-002   1.2179487757981780E-004   300.01204372282990     
   3.2051282051282048E-002   1.3461539100927231E-004   300.01612355053430     
   3.2051282051282048E-002   1.4743590443872681E-004   300.02151712371949     
   3.2051282051282048E-002   1.6025641786818131E-004   300.02860851641771     
   3.2051282051282048E-002   1.7307693129763583E-004   300.03787983956607     
   3.2051282051282048E-002   1.8589744472709030E-004   300.04993016286636     
   3.2051282051282048E-002   1.9871795815654483E-004   300.06549586153045     
   3.2051282051282048E-002   2.1153847158599930E-004   300.08547155114900     
   3.2051282051282048E-002   2.2435898501545383E-004   300.11093034396862     
   3.2051282051282048E-002   2.3717949844490835E-004   300.14314165971075     
   3.2051282051282048E-002   2.5000001187436283E-004   300.18358428386756     
   3.2051282051282048E-002   2.6282052530381735E-004   300.23395183926038     
   3.2051282051282048E-002   2.7564103873327188E-004   300.29614740259524     
   3.2051282051282048E-002   2.8846155216272635E-004   300.37226376469829     
   3.2051282051282048E-002   3.0128206559218082E-004   300.46454593223763     
   3.2051282051282048E-002   3.1410257902163535E-004   300.57533304193259     
   3.2051282051282048E-002   3.2692309245108987E-004   300.70697803513667     
   3.2051282051282048E-002   3.3974360588054440E-004   300.86174530431134     
   3.2051282051282048E-002   3.5256411930999887E-004   301.04168906548273     
   3.2051282051282048E-002   3.6538463273945334E-004   301.24851828506945     
   3.2051282051282048E-002   3.7820514616890787E-004   301.48345726685733     
   3.2051282051282048E-002   3.9102565959836240E-004   301.74711395679543     
   3.2051282051282048E-002   4.0384617302781692E-004   302.03936994747318     
   3.2051282051282048E-002   4.1666668645727140E-004   302.35930627741504     
   3.2051282051282048E-002   4.2948719988672587E-004   302.70517673124732     
   3.2051282051282048E-002   4.4230771331618039E-004   303.07443510175710     
   3.2051282051282048E-002   4.5512822674563492E-004   303.46381503663213     
   3.2051282051282048E-002   4.6794874017508945E-004   303.86945176324906     
   3.2051282051282048E-002   4.8076925360454392E-004   304.28702613630338     
   3.2051282051282048E-002   4.9358976703399839E-004   304.71190560019539     
   4.4871794871794872E-002  -4.9358976703399839E-004   305.27675756452885     
   4.4871794871794872E-002  -4.8076925360454386E-004   304.85134432223231     
   4.4871794871794872E-002  -4.6794874017508939E-004   304.43166223611308     
   4.4871794871794872E-002  -4.5512822674563492E-004   304.02137200533400     
   4.4871794871794872E-002  -4.4230771331618039E-004   303.62394882691751     
   4.4871794871794872E-002  -4.2948719988672587E-004   303.24261149425797     
   4.4871794871794872E-002  -4.1666668645727134E-004   302.88024086940089     
   4.4871794871794872E-002  -4.0384617302781687E-004   302.53929757653538     
   4.4871794871794872E-002  -3.9102565959836240E-004   302.22174928221528     
   4.4871794871794872E-002  -3.7820514616890787E-004   301.92901684566436     
   4.4871794871794872E-002  -3.6538463273945334E-004   301.66194611153293     
   4.4871794871794872E-002  -3.5256411930999882E-004   301.42080870696037     
   4.4871794871794872E-002  -3.3974360588054435E-004   301.20533157545145     
   4.4871794871794872E-002  -3.2692309245108987E-004   301.01475176491056     
   4.4871794871794872E-002  -3.1410257902163535E-004   300.84789063534259     
   4.4871794871794872E-002  -3.0128206559218082E-004   300.70324037302248     
   4.4871794871794872E-002  -2.8846155216272630E-004   300.57905547702836     
   4.4871794871794872E-002  -2.7564103873327182E-004   300.47344253901201     
   4.4871794871794872E-002  -2.6282052530381735E-004   300.38444289490883     
   4.4871794871794872E-002  -2.5000001187436283E-004   300.31010429442091     
   4.4871794871794872E-002  -2.3717949844490830E-004   300.24853934945128     
   4.4871794871794872E-002  -2.2435898501545383E-004   300.19796998846959     
   4.4871794871794872E-002  -2.1153847158599930E-004   300.15675833613426     
   4.4871794871794872E-002  -1.9871795815654483E-004   300.12342530159663     
   4.4871794871794872E-002  -1.8589744472709030E-004   300.09665869523400     
   4.4871794871794872E-002  -1.7307693129763578E-004   300.07531294037312     
   4.4871794871794872E-002  -1.6025641786818131E-004   300.05840246294366     
   4.4871794871794872E-002  -1.4743590443872678E-004   300.04509069376752     
   4.4871794871794872E-002  -1.3461539100927231E-004   300.03467636780579     
   4.4871794871794872E-002  -1.2179487757981778E-004   300.02657850517119     
   4.4871794871794872E-002  -1.0897436415036328E-004   300.02032115087837     
   4.4871794871794872E-002  -9.6153850720908770E-005   300.01551866250327     
   4.4871794871794872E-002  -8.3333337291454271E-005   300.01186208437213     
   4.4871794871794872E-002  -7.0512823861999758E-005   300.00910694182812     
   4.4871794871794872E-002  -5.7692310432545259E-005   300.00706263112028     
   4.4871794871794872E-002  -4.4871797003090760E-005   300.00558346671914     
   4.4871794871794872E-002  -3.2051283573636248E-005   300.00456137300353     
   4.4871794871794872E-002  -1.9230770144181749E-005   300.00392016476968     
   4.4871794871794872E-002  -6.4102567147272436E-006   300.00361134416920     
   4.4871794871794872E-002   6.4102567147272605E-006   300.00361134416926     
   4.4871794871794872E-002   1.9230770144181766E-005   300.00392016476985     
   4.4871794871794872E-002   3.2051283573636275E-005   300.00456137300375     
   4.4871794871794872E-002   4.4871797003090774E-005   300.00558346671932     
   4.4871794871794872E-002   5.7692310432545273E-005   300.00706263112050     
   4.4871794871794872E-002   7.0512823861999785E-005   300.00910694182841     
   4.4871794871794872E-002   8.3333337291454284E-005   300.01186208437247     
   4.4871794871794872E-002   9.6153850720908784E-005   300.01551866250372     
   4.4871794871794872E-002   1.0897436415036330E-004   300.02032115087900     
   4.4871794871794872E-002   1.2179487757981780E-004   300.02657850517187     
   4.4871794871794872E-002   1.3461539100927231E-004   300.03467636780636     
   4.4871794871794872E-002   1.4743590443872681E-004   300.04509069376797     
   4.4871794871794872E-002   1.6025641786818131E-004   300.05840246294412     
   4.4871794871794872E-002   1.7307693129763583E-004   300.07531294037358     
   4.4871794871794872E-002   1.8589744472709030E-004   300.09665869523440     
   4.4871794871794872E-002   1.9871795815654483E-004   300.12342530159697     
   4.4871794871794872E-002   2.1153847158599930E-004   300.15675833613460     
   4.4871794871794872E-002   2.2435898501545383E-004   300.19796998846988     
   4.4871794871794872E-002   2.3717949844490835E-004   300.24853934945145     
   4.4871794871794872E-002   2.5000001187436283E-004   300.31010429442108     
   4.4871794871794872E-002   2.6282052530381735E-004   300.38444289490911     
   4.4871794871794872E-002   2.7564103873327188E-004   300.47344253901230     
   4.4871794871794872E-002   2.8846155216272635E-004   300.57905547702870     
   4.4871794871794872E-002   3.0128206559218082E-004   300.70324037302288     
   4.4871794871794872E-002   3.1410257902163535E-004   300.84789063534311     
   4.4871794871794872E-002   3.2692309245108987E-004   301.01475176491118     
   4.4871794871794872E-002   3.3974360588054440E-004   301.20533157545219     
   4.4871794871794872E-002   3.5256411930999887E-004   301.42080870696128     
   4.4871794871794872E-002   3.6538463273945334E-004   301.66194611153389     
   4.4871794871794872E-002   3.7820514616890787E-004   301.92901684566544     
   4.4871794871794872E-002   3.9102565959836240E-004   302.22174928221648     
   4.4871794871794872E-002   4.0384617302781692E-004   302.53929757653663     
   4.4871794871794872E-002   4.1666668645727140E-004   302.88024086940231     
   4.4871794871794872E-002   4.2948719988672587E-004   303.24261149425956     
   4.4871794871794872E-002   4.4230771331618039E-004   303.62394882691927     
   4.4871794871794872E-002   4.5512822674563492E-004   304.02137200533588     
   4.4871794871794872E-002   4.6794874017508945E-004   304.43166223611507     
   4.4871794871794872E-002   4.8076925360454392E-004   304.85134432223430     
   4.4871794871794872E-002   4.9358976703399839E-004   305.27675756453090     
   5.7692307692307689E-002  -4.9358976703399839E-004   305.75058462650566     
   5.7692307692307689E-002  -4.8076925360454386E-004   305.32485920970424     
   5.7692307692307689E-002  -4.6794874017508939E-004   304.90394276032595     
   5.7692307692307689E-002  -4.5512822674563492E-004   304.49091586579840     
   5.7692307692307689E-002  -4.4230771331618039E-004   304.08872489616874     
   5.7692307692307689E-002  -4.2948719988672587E-004   303.70013925761481     
   5.7692307692307689E-002  -4.1666668645727134E-004   303.32770031442993     
   5.7692307692307689E-002  -4.0384617302781687E-004   302.97366648818081     
   5.7692307692307689E-002  -3.9102565959836240E-004   302.63995972422106     
   5.7692307692307689E-002  -3.7820514616890787E-004   302.32811869652352     
   5.7692307692307689E-002  -3.6538463273945334E-004   302.03926366984342     
   5.7692307692307689E-002  -3.5256411930999882E-004   301.77407686276945     
   5.7692307692307689E-002  -3.3974360588054435E-004   301.53280060094545     
   5.7692307692307689E-002  -3.2692309245108987E-004   301.31525375475780     
   5.7692307692307689E-002  -3.1410257902163535E-004   301.12086519057863     
   5.7692307692307689E-002  -3.0128206559218082E-004   300.94872147209435     
   5.7692307692307689E-002  -2.8846155216272630E-004   300.79762499962919     
   5.7692307692307689E-002  -2.7564103873327182E-004   300.66615824995722     
   5.7692307692307689E-002  -2.6282052530381735E-004   300.55274976636247     
   5.7692307692307689E-002  -2.5000001187436283E-004   300.45573796742434     
   5.7692307692307689E-002  -2.3717949844490830E-004   300.37342956886278     
   5.7692307692307689E-002  -2.2435898501545383E-004   300.30415030689994     
   5.7692307692307689E-002  -2.1153847158599930E-004   300.24628658425303     
   5.7692307692307689E-002  -1.9871795815654483E-004   300.19831752650322     
   5.7692307692307689E-002  -1.8589744472709030E-004   300.15883766552713     
   5.7692307692307689E-002  -1.7307693129763578E-004   300.12657101984820     
   5.7692307692307689E-002  -1.6025641786818131E-004   300.10037771028539     
   5.7692307692307689E-002  -1.4743590443872678E-004   300.07925444637470     
   5.7692307692307689E-002  -1.3461539100927231E-004   300.06233027207867     
   5.7692307692307689E-002  -1.2179487757981778E-004   300.04885890250551     
   5.7692307692307689E-002  -1.0897436415036328E-004   300.03820885190277     
   5.7692307692307689E-002  -9.6153850720908770E-005   300.02985237911611     
   5.7692307692307689E-002  -8.3333337291454271E-005   300.02335408650998     
   5.7692307692307689E-002  -7.0512823861999758E-005   300.01835982203289     
   5.7692307692307689E-002  -5.7692310432545259E-005   300.01458636525746     
   5.7692307692307689E-002  -4.4871797003090760E-005   300.01181223473247     
   5.7692307692307689E-002  -3.2051283573636248E-005   300.00986983914026     
   5.7692307692307689E-002  -1.9230770144181749E-005   300.00863910839706     
   5.7692307692307689E-002  -6.4102567147272436E-006   300.00804268038769     
   5.7692307692307689E-002   6.4102567147272605E-006   300.00804268038775     
   5.7692307692307689E-002   1.9230770144181766E-005   300.00863910839723     
   5.7692307692307689E-002   3.2051283573636275E-005   300.00986983914049     
   5.7692307692307689E-002   4.4871797003090774E-005   300.01181223473270     
   5.7692307692307689E-002   5.7692310432545273E-005   300.01458636525774     
   5.7692307692307689E-002   7.0512823861999785E-005   300.01835982203323     
   5.7692307692307689E-002   8.3333337291454284E-005   300.02335408651044     
   5.7692307692307689E-002   9.6153850720908784E-005   300.02985237911668     
   5.7692307692307689E-002   1.0897436415036330E-004   300.03820885190345     
   5.7692307692307689E-002   1.2179487757981780E-004   300.04885890250625     
   5.7692307692307689E-002   1.3461539100927231E-004   300.06233027207935     
   5.7692307692307689E-002   1.4743590443872681E-004   300.07925444637527     
   5.7692307692307689E-002   1.6025641786818131E-004   300.10037771028595     
   5.7692307692307689E-002   1.7307693129763583E-004   300.12657101984871     
   5.7692307692307689E-002   1.8589744472709030E-004   300.15883766552759     
   5.7692307692307689E-002   1.9871795815654483E-004   300.19831752650362     
   5.7692307692307689E-002   2.1153847158599930E-004   300.24628658425343     
   5.7692307692307689E-002   2.2435898501545383E-004   300.30415030690028     
   5.7692307692307689E-002   2.3717949844490835E-004   300.37342956886306     
   5.7692307692307689E-002   2.5000001187436283E-004   300.45573796742457     
   5.7692307692307689E-002   2.6282052530381735E-004   300.55274976636269     
   5.7692307692307689E-002   2.7564103873327188E-004   300.66615824995750     