 VARIABLES = X,Y,U,V,sy,w,p
 ZONE     i=         143          j=         143                       F=POINT
   0.00000000       0.00000000       0.00000000       0.00000000       0.00000000       0.00000000       0.00000000    
   7.00000022E-03   0.00000000       0.00000000       0.00000000       0.00000000      -6.88434462E-04   0.00000000    
   1.40000004E-02   0.00000000       0.00000000       0.00000000       0.00000000      -2.92232120E-03   6.28706289E-07
   2.10000016E-02   0.00000000       0.00000000       0.00000000       0.00000000      -5.88641595E-03  -9.02285046E-06
   2.80000009E-02   0.00000000       0.00000000       0.00000000       0.00000000      -8.85603577E-03  -3.56324781E-05
   3.50000001E-02   0.00000000       0.00000000       0.00000000       0.00000000      -1.13305841E-02  -8.12580984E-05
   4.20000032E-02   0.00000000       0.00000000       0.00000000       0.00000000      -1.29893925E-02  -1.45223778E-04
   4.90000024E-02   0.00000000       0.00000000       0.00000000       0.00000000      -1.36356512E-02  -2.25556301E-04
   5.60000017E-02   0.00000000       0.00000000       0.00000000       0.00000000      -1.31553644E-02  -3.19796032E-04
   6.30000010E-02   0.00000000       0.00000000       0.00000000       0.00000000      -1.14903003E-02  -4.25403618E-04
   7.00000003E-02   0.00000000       0.00000000       0.00000000       0.00000000      -8.62027612E-03  -5.39950153E-04
   7.69999996E-02   0.00000000       0.00000000       0.00000000       0.00000000      -4.55153221E-03  -6.61196536E-04
   8.40000063E-02   0.00000000       0.00000000       0.00000000       0.00000000       6.91316440E-04  -7.87119905E-04
   9.10000056E-02   0.00000000       0.00000000       0.00000000       0.00000000       7.07075605E-03  -9.15915065E-04
   9.80000049E-02   0.00000000       0.00000000       0.00000000       0.00000000       1.45404078E-02  -1.04598247E-03
  0.105000004       0.00000000       0.00000000       0.00000000       0.00000000       2.30478663E-02  -1.17591477E-03
  0.112000003       0.00000000       0.00000000       0.00000000       0.00000000       3.25368941E-02  -1.30447734E-03
  0.119000003       0.00000000       0.00000000       0.00000000       0.00000000       4.29490022E-02  -1.43059320E-03
  0.126000002       0.00000000       0.00000000       0.00000000       0.00000000       5.42245917E-02  -1.55332661E-03
  0.133000001       0.00000000       0.00000000       0.00000000       0.00000000       6.63039833E-02  -1.67186710E-03
  0.140000001       0.00000000       0.00000000       0.00000000       0.00000000       7.91280046E-02  -1.78551546E-03
  0.147000000       0.00000000       0.00000000       0.00000000       0.00000000       9.26385298E-02  -1.89367228E-03
  0.153999999       0.00000000       0.00000000       0.00000000       0.00000000      0.106778905      -1.99582637E-03
  0.160999998       0.00000000       0.00000000       0.00000000       0.00000000      0.121494018      -2.09154002E-03
  0.168000013       0.00000000       0.00000000       0.00000000       0.00000000      0.136730835      -2.18044757E-03
  0.175000012       0.00000000       0.00000000       0.00000000       0.00000000      0.152438119      -2.26223981E-03
  0.182000011       0.00000000       0.00000000       0.00000000       0.00000000      0.168566674      -2.33665807E-03
  0.189000010       0.00000000       0.00000000       0.00000000       0.00000000      0.185069337      -2.40348955E-03
  0.196000010       0.00000000       0.00000000       0.00000000       0.00000000      0.201901034      -2.46255542E-03
  0.203000009       0.00000000       0.00000000       0.00000000       0.00000000      0.219018474      -2.51371437E-03
  0.210000008       0.00000000       0.00000000       0.00000000       0.00000000      0.236380115      -2.55684904E-03
  0.217000008       0.00000000       0.00000000       0.00000000       0.00000000      0.253946245      -2.59186537E-03
  0.224000007       0.00000000       0.00000000       0.00000000       0.00000000      0.271678925      -2.61869072E-03
  0.231000006       0.00000000       0.00000000       0.00000000       0.00000000      0.289541483      -2.63726478E-03
  0.238000005       0.00000000       0.00000000       0.00000000       0.00000000      0.307498574      -2.64754170E-03
  0.245000005       0.00000000       0.00000000       0.00000000       0.00000000      0.325516015      -2.64948513E-03
  0.252000004       0.00000000       0.00000000       0.00000000       0.00000000      0.343561053      -2.64307507E-03
  0.259000003       0.00000000       0.00000000       0.00000000       0.00000000      0.361601561      -2.62829103E-03
  0.266000003       0.00000000       0.00000000       0.00000000       0.00000000      0.379606068      -2.60511530E-03
  0.273000002       0.00000000       0.00000000       0.00000000       0.00000000      0.397544354      -2.57354812E-03
  0.280000001       0.00000000       0.00000000       0.00000000       0.00000000      0.415385902      -2.53357948E-03
  0.287000000       0.00000000       0.00000000       0.00000000       0.00000000      0.433101326      -2.48521613E-03
  0.294000000       0.00000000       0.00000000       0.00000000       0.00000000      0.450661242      -2.42846343E-03
  0.300999999       0.00000000       0.00000000       0.00000000       0.00000000      0.468036413      -2.36333604E-03
  0.307999998       0.00000000       0.00000000       0.00000000       0.00000000      0.485198021      -2.28983932E-03
  0.314999998       0.00000000       0.00000000       0.00000000       0.00000000      0.502117097      -2.20800703E-03
  0.321999997       0.00000000       0.00000000       0.00000000       0.00000000      0.518764734      -2.11786106E-03
  0.328999996       0.00000000       0.00000000       0.00000000       0.00000000      0.535112083      -2.01943424E-03
  0.336000025       0.00000000       0.00000000       0.00000000       0.00000000      0.551129878      -1.91277149E-03
  0.343000025       0.00000000       0.00000000       0.00000000       0.00000000      0.566789150      -1.79792044E-03
  0.350000024       0.00000000       0.00000000       0.00000000       0.00000000      0.582060754      -1.67494395E-03
  0.357000023       0.00000000       0.00000000       0.00000000       0.00000000      0.596914589      -1.54391816E-03
  0.364000022       0.00000000       0.00000000       0.00000000       0.00000000      0.611321986      -1.40492828E-03
  0.371000022       0.00000000       0.00000000       0.00000000       0.00000000      0.625252545      -1.25809002E-03
  0.378000021       0.00000000       0.00000000       0.00000000       0.00000000      0.638677061      -1.10349781E-03
  0.385000020       0.00000000       0.00000000       0.00000000       0.00000000      0.651565671      -9.41288017E-04
  0.392000020       0.00000000       0.00000000       0.00000000       0.00000000      0.663888633      -7.71613733E-04
  0.399000019       0.00000000       0.00000000       0.00000000       0.00000000      0.675616264      -5.94641839E-04
  0.406000018       0.00000000       0.00000000       0.00000000       0.00000000      0.686719358      -4.10566630E-04
  0.413000017       0.00000000       0.00000000       0.00000000       0.00000000      0.697168887      -2.19592970E-04
  0.420000017       0.00000000       0.00000000       0.00000000       0.00000000      0.706935883      -2.19650083E-05
  0.427000016       0.00000000       0.00000000       0.00000000       0.00000000      0.715992153       1.82056479E-04
  0.434000015       0.00000000       0.00000000       0.00000000       0.00000000      0.724310040       3.92202754E-04
  0.441000015       0.00000000       0.00000000       0.00000000       0.00000000      0.731862724       6.08159811E-04
  0.448000014       0.00000000       0.00000000       0.00000000       0.00000000      0.738623917       8.29604338E-04
  0.455000013       0.00000000       0.00000000       0.00000000       0.00000000      0.744568527       1.05617649E-03
  0.462000012       0.00000000       0.00000000       0.00000000       0.00000000      0.749672771       1.28749374E-03
  0.469000012       0.00000000       0.00000000       0.00000000       0.00000000      0.753913820       1.52314291E-03
  0.476000011       0.00000000       0.00000000       0.00000000       0.00000000      0.757270336       1.76269165E-03
  0.483000010       0.00000000       0.00000000       0.00000000       0.00000000      0.759722769       2.00568163E-03
  0.490000010       0.00000000       0.00000000       0.00000000       0.00000000      0.761252701       2.25162250E-03
  0.497000009       0.00000000       0.00000000       0.00000000       0.00000000      0.761843979       2.50001345E-03
  0.504000008       0.00000000       0.00000000       0.00000000       0.00000000      0.761482775       2.75031175E-03
  0.511000037       0.00000000       0.00000000       0.00000000       0.00000000      0.760156929       3.00196046E-03
  0.518000007       0.00000000       0.00000000       0.00000000       0.00000000      0.757856667       3.25438753E-03
  0.525000036       0.00000000       0.00000000       0.00000000       0.00000000      0.754574656       3.50699481E-03
  0.532000005       0.00000000       0.00000000       0.00000000       0.00000000      0.750306249       3.75916227E-03
  0.539000034       0.00000000       0.00000000       0.00000000       0.00000000      0.745049179       4.01026430E-03
  0.546000004       0.00000000       0.00000000       0.00000000       0.00000000      0.738804340       4.25965386E-03
  0.553000033       0.00000000       0.00000000       0.00000000       0.00000000      0.731575608       4.50667366E-03
  0.560000002       0.00000000       0.00000000       0.00000000       0.00000000      0.723369062       4.75065503E-03
  0.567000031       0.00000000       0.00000000       0.00000000       0.00000000      0.714195132       4.99092042E-03
  0.574000001       0.00000000       0.00000000       0.00000000       0.00000000      0.704066336       5.22679510E-03
  0.581000030       0.00000000       0.00000000       0.00000000       0.00000000      0.692999423       5.45760756E-03
  0.588000000       0.00000000       0.00000000       0.00000000       0.00000000      0.681013048       5.68267610E-03
  0.595000029       0.00000000       0.00000000       0.00000000       0.00000000      0.668130398       5.90132596E-03
  0.601999998       0.00000000       0.00000000       0.00000000       0.00000000      0.654377580       6.11289917E-03
  0.609000027       0.00000000       0.00000000       0.00000000       0.00000000      0.639783919       6.31674053E-03
  0.615999997       0.00000000       0.00000000       0.00000000       0.00000000      0.624382019       6.51221396E-03
  0.623000026       0.00000000       0.00000000       0.00000000       0.00000000      0.608207941       6.69871084E-03
  0.629999995       0.00000000       0.00000000       0.00000000       0.00000000      0.591301143       6.87563140E-03
  0.637000024       0.00000000       0.00000000       0.00000000       0.00000000      0.573703468       7.04241404E-03
  0.643999994       0.00000000       0.00000000       0.00000000       0.00000000      0.555460632       7.19852047E-03
  0.651000023       0.00000000       0.00000000       0.00000000       0.00000000      0.536620736       7.34344777E-03
  0.657999992       0.00000000       0.00000000       0.00000000       0.00000000      0.517234862       7.47672608E-03
  0.665000021       0.00000000       0.00000000       0.00000000       0.00000000      0.497356743       7.59792887E-03
  0.672000051       0.00000000       0.00000000       0.00000000       0.00000000      0.477042735       7.70666450E-03
  0.679000020       0.00000000       0.00000000       0.00000000       0.00000000      0.456351131       7.80260283E-03
  0.686000049       0.00000000       0.00000000       0.00000000       0.00000000      0.435342610       7.88544957E-03
  0.693000019       0.00000000       0.00000000       0.00000000       0.00000000      0.414079666       7.95495976E-03
  0.700000048       0.00000000       0.00000000       0.00000000       0.00000000      0.392626464       8.01095553E-03
  0.707000017       0.00000000       0.00000000       0.00000000       0.00000000      0.371048480       8.05330370E-03
  0.714000046       0.00000000       0.00000000       0.00000000       0.00000000      0.349412471       8.08193069E-03
  0.721000016       0.00000000       0.00000000       0.00000000       0.00000000      0.327785999       8.09682254E-03
  0.728000045       0.00000000       0.00000000       0.00000000       0.00000000      0.306237429       8.09802581E-03
  0.735000014       0.00000000       0.00000000       0.00000000       0.00000000      0.284835160       8.08565319E-03
  0.742000043       0.00000000       0.00000000       0.00000000       0.00000000      0.263647556       8.05987511E-03
  0.749000013       0.00000000       0.00000000       0.00000000       0.00000000      0.242743179       8.02092813E-03
  0.756000042       0.00000000       0.00000000       0.00000000       0.00000000      0.222189635       7.96911214E-03
  0.763000011       0.00000000       0.00000000       0.00000000       0.00000000      0.202053890       7.90478569E-03
  0.770000041       0.00000000       0.00000000       0.00000000       0.00000000      0.182401597       7.82837346E-03
  0.777000010       0.00000000       0.00000000       0.00000000       0.00000000      0.163297012       7.74036162E-03
  0.784000039       0.00000000       0.00000000       0.00000000       0.00000000      0.144802630       7.64130102E-03
  0.791000009       0.00000000       0.00000000       0.00000000       0.00000000      0.126978919       7.53179938E-03
  0.798000038       0.00000000       0.00000000       0.00000000       0.00000000      0.109883949       7.41252489E-03
  0.805000007       0.00000000       0.00000000       0.00000000       0.00000000       9.35730487E-02   7.28420587E-03
  0.812000036       0.00000000       0.00000000       0.00000000       0.00000000       7.80987218E-02   7.14762509E-03
  0.819000006       0.00000000       0.00000000       0.00000000       0.00000000       6.35101348E-02   7.00362213E-03
  0.826000035       0.00000000       0.00000000       0.00000000       0.00000000       4.98529077E-02   6.85308874E-03
  0.833000004       0.00000000       0.00000000       0.00000000       0.00000000       3.71688567E-02   6.69696787E-03
  0.840000033       0.00000000       0.00000000       0.00000000       0.00000000       2.54956130E-02   6.53625466E-03
  0.847000003       0.00000000       0.00000000       0.00000000       0.00000000       1.48662850E-02   6.37199078E-03
  0.854000032       0.00000000       0.00000000       0.00000000       0.00000000       5.30914590E-03   6.20526634E-03
  0.861000001       0.00000000       0.00000000       0.00000000       0.00000000      -3.15278000E-03   6.03721710E-03
  0.868000031       0.00000000       0.00000000       0.00000000       0.00000000      -1.05021736E-02   5.86902304E-03
  0.875000000       0.00000000       0.00000000       0.00000000       0.00000000      -1.67279243E-02   5.70190744E-03
  0.882000029       0.00000000       0.00000000       0.00000000       0.00000000      -2.18257327E-02   5.53713553E-03
  0.888999999       0.00000000       0.00000000       0.00000000       0.00000000      -2.57988479E-02   5.37601300E-03
  0.896000028       0.00000000       0.00000000       0.00000000       0.00000000      -2.86589805E-02   5.21988515E-03
  0.903000057       0.00000000       0.00000000       0.00000000       0.00000000      -3.04274056E-02   5.07013360E-03
  0.910000026       0.00000000       0.00000000       0.00000000       0.00000000      -3.11364904E-02   4.92817257E-03
  0.917000055       0.00000000       0.00000000       0.00000000       0.00000000      -3.08315046E-02   4.79544420E-03
  0.924000025       0.00000000       0.00000000       0.00000000       0.00000000      -2.95731723E-02   4.67340648E-03
  0.931000054       0.00000000       0.00000000       0.00000000       0.00000000      -2.74409298E-02   4.56351694E-03
  0.938000023       0.00000000       0.00000000       0.00000000       0.00000000      -2.45374721E-02   4.46720188E-03
  0.945000052       0.00000000       0.00000000       0.00000000       0.00000000      -2.09948700E-02   4.38580569E-03
  0.952000022       0.00000000       0.00000000       0.00000000       0.00000000      -1.69831105E-02   4.32049995E-03
  0.959000051       0.00000000       0.00000000       0.00000000       0.00000000      -1.27217909E-02   4.27212985E-03
  0.966000021       0.00000000       0.00000000       0.00000000       0.00000000      -8.49556271E-03   4.24094498E-03
  0.973000050       0.00000000       0.00000000       0.00000000       0.00000000      -4.67136223E-03   4.22614207E-03
  0.980000019       0.00000000       0.00000000       0.00000000       0.00000000      -1.70482183E-03   4.22514090E-03
  0.987000048       0.00000000       0.00000000       0.00000000       0.00000000      -8.23516821E-05   4.23263526E-03
  0.994000018       0.00000000       0.00000000       0.00000000       0.00000000       0.00000000       4.24020505E-03
   0.00000000       7.00000022E-03   0.00000000       0.00000000       0.00000000      -6.88434462E-04   0.00000000    
   7.00000022E-03   7.00000022E-03   5.11756207E-06  -5.11406233E-06   1.68666450E-08  -1.54645252E-03   0.00000000    
   1.40000004E-02   7.00000022E-03   1.73619937E-05  -9.09646769E-06   7.15968724E-08  -2.40334962E-03   8.58576914E-06
   2.10000016E-02   7.00000022E-03   3.25906803E-05  -1.03840002E-05   1.44217196E-07  -3.42797278E-03   2.55737609E-06
   2.80000009E-02   7.00000022E-03   4.72381871E-05  -9.52729442E-06   2.16972879E-07  -4.39305278E-03  -2.17293546E-05
   3.50000001E-02   7.00000022E-03   5.86444548E-05  -7.23337462E-06   2.77599327E-07  -5.01710363E-03  -6.46540575E-05
   4.20000032E-02   7.00000022E-03   6.49567301E-05  -4.03386684E-06   3.18240126E-07  -5.06339688E-03  -1.24900092E-04
   4.90000024E-02   7.00000022E-03   6.49464127E-05  -2.90451595E-07   3.34073462E-07  -4.35719825E-03  -2.00397568E-04
   5.60000017E-02   7.00000022E-03   5.78444779E-05   3.75436366E-06   3.22306448E-07  -2.77923443E-03  -2.88823299E-04
   6.30000010E-02   7.00000022E-03   4.32153720E-05   7.93640538E-06   2.81512371E-07  -2.54478975E-04  -3.87850625E-04
   7.00000003E-02   7.00000022E-03   2.08649508E-05   1.21428448E-05   2.11196763E-07   3.25823156E-03  -4.95269080E-04
   7.69999996E-02   7.00000022E-03  -9.22582876E-06   1.62952856E-05   1.11512541E-07   7.77452486E-03  -6.09036302E-04
   8.40000063E-02   7.00000022E-03  -4.69488587E-05   2.03390045E-05  -1.69372534E-08   1.32909436E-02  -7.27296225E-04
   9.10000056E-02   7.00000022E-03  -9.21041428E-05   2.42359110E-05  -1.73233531E-07   1.97898094E-02  -8.48380383E-04
   9.80000049E-02   7.00000022E-03  -1.44425590E-04   2.79599426E-05  -3.56240008E-07   2.72429604E-02  -9.70799476E-04
  0.105000004       7.00000022E-03  -2.03600808E-04   3.14938479E-05  -5.64672746E-07   3.56145725E-02  -1.09323289E-03
  0.112000003       7.00000022E-03  -2.69285549E-04   3.48269859E-05  -7.97153916E-07   4.48633581E-02  -1.21451402E-03
  0.119000003       7.00000022E-03  -3.41115257E-04   3.79534722E-05  -1.05225058E-06   5.49442582E-02  -1.33361819E-03
  0.126000002       7.00000022E-03  -4.18713462E-04   4.08712112E-05  -1.32850255E-06   6.58097267E-02  -1.44964806E-03
  0.133000001       7.00000022E-03  -5.01698523E-04   4.35809707E-05  -1.62444758E-06   7.74107799E-02  -1.56182155E-03
  0.140000001       7.00000022E-03  -5.89688774E-04   4.60854608E-05  -1.93863616E-06   8.96977782E-02  -1.66946009E-03
  0.147000000       7.00000022E-03  -6.82306301E-04   4.83890799E-05  -2.26964403E-06  0.102621034      -1.77197682E-03
  0.153999999       7.00000022E-03  -7.79179682E-04   5.04971104E-05  -2.61608329E-06  0.116131283      -1.86886708E-03
  0.160999998       7.00000022E-03  -8.79946281E-04   5.24158677E-05  -2.97660358E-06  0.130180016      -1.95969804E-03
  0.168000013       7.00000022E-03  -9.84253944E-04   5.41521731E-05  -3.34990546E-06  0.144719824      -2.04410264E-03
  0.175000012       7.00000022E-03  -1.09176175E-03   5.57127205E-05  -3.73473404E-06  0.159704447      -2.12176843E-03
  0.182000011       7.00000022E-03  -1.20214012E-03   5.71046367E-05  -4.12988356E-06  0.175089017      -2.19243136E-03
  0.189000010       7.00000022E-03  -1.31507253E-03   5.83351502E-05  -4.53419898E-06  0.190830067      -2.25587306E-03
  0.196000010       7.00000022E-03  -1.43025350E-03   5.94109842E-05  -4.94657570E-06  0.206885576      -2.31190724E-03
  0.203000009       7.00000022E-03  -1.54738978E-03   6.03383778E-05  -5.36595280E-06  0.223214999      -2.36038305E-03
  0.210000008       7.00000022E-03  -1.66619942E-03   6.11235955E-05  -5.79131301E-06  0.239779130      -2.40117498E-03
  0.217000008       7.00000022E-03  -1.78641139E-03   6.17729092E-05  -6.22168318E-06  0.256540179      -2.43418082E-03
  0.224000007       7.00000022E-03  -1.90776482E-03   6.22916778E-05  -6.65613379E-06  0.273461610      -2.45931814E-03
  0.231000006       7.00000022E-03  -2.03000824E-03   6.26843903E-05  -7.09376673E-06  0.290508181      -2.47651991E-03
  0.238000005       7.00000022E-03  -2.15289858E-03   6.29554197E-05  -7.53371523E-06  0.307645619      -2.48573255E-03
  0.245000005       7.00000022E-03  -2.27620034E-03   6.31093499E-05  -7.97514258E-06  0.324840754      -2.48691346E-03
  0.252000004       7.00000022E-03  -2.39968626E-03   6.31497242E-05  -8.41724614E-06  0.342061371      -2.48003425E-03
  0.259000003       7.00000022E-03  -2.52313423E-03   6.30787836E-05  -8.85923873E-06  0.359275997      -2.46506836E-03
  0.266000003       7.00000022E-03  -2.64632655E-03   6.28998750E-05  -9.30034912E-06  0.376453876      -2.44199508E-03
  0.273000002       7.00000022E-03  -2.76905135E-03   6.26146793E-05  -9.73983697E-06  0.393564939      -2.41080695E-03
  0.280000001       7.00000022E-03  -2.89109978E-03   6.22247026E-05  -1.01769547E-05  0.410579473      -2.37149489E-03
  0.287000000       7.00000022E-03  -3.01226648E-03   6.17318874E-05  -1.06109828E-05  0.427468389      -2.32405937E-03
  0.294000000       7.00000022E-03  -3.13234702E-03   6.11364303E-05  -1.10412011E-05  0.444202781      -2.26850132E-03
  0.300999999       7.00000022E-03  -3.25114047E-03   6.04393645E-05  -1.14668928E-05  0.460754007      -2.20483379E-03
  0.307999998       7.00000022E-03  -3.36844544E-03   5.96411519E-05  -1.18873522E-05  0.477093756      -2.13306630E-03
  0.314999998       7.00000022E-03  -3.48406238E-03   5.87417271E-05  -1.23018690E-05  0.493193656      -2.05322355E-03
  0.321999997       7.00000022E-03  -3.59779177E-03   5.77412175E-05  -1.27097364E-05  0.509025574      -1.96533068E-03
  0.328999996       7.00000022E-03  -3.70943337E-03   5.66390408E-05  -1.31102461E-05  0.524561405      -1.86942006E-03
  0.336000025       7.00000022E-03  -3.81878787E-03   5.54349353E-05  -1.35026830E-05  0.539772987      -1.76553696E-03
  0.343000025       7.00000022E-03  -3.92565364E-03   5.41289664E-05  -1.38863352E-05  0.554632127      -1.65372842E-03
  0.350000024       7.00000022E-03  -4.02983045E-03   5.27195079E-05  -1.42604886E-05  0.569110870      -1.53406023E-03
  0.357000023       7.00000022E-03  -4.13111644E-03   5.12071492E-05  -1.46244083E-05  0.583180785      -1.40660501E-03
  0.364000022       7.00000022E-03  -4.22930857E-03   4.95914319E-05  -1.49773887E-05  0.596814036      -1.27144810E-03
  0.371000022       7.00000022E-03  -4.32420755E-03   4.78714464E-05  -1.53186884E-05  0.609982252      -1.12870045E-03
  0.378000021       7.00000022E-03  -4.41560894E-03   4.60479750E-05  -1.56475890E-05  0.622657478      -9.78462864E-04
  0.385000020       7.00000022E-03  -4.50331112E-03   4.41202355E-05  -1.59633601E-05  0.634811759      -8.20871443E-04
  0.392000020       7.00000022E-03  -4.58711246E-03   4.20885553E-05  -1.62652723E-05  0.646417320      -6.56075601E-04
  0.399000019       7.00000022E-03  -4.66681318E-03   3.99537130E-05  -1.65525998E-05  0.657446563      -4.84243385E-04
  0.406000018       7.00000022E-03  -4.74221492E-03   3.77170036E-05  -1.68246243E-05  0.667872190      -3.05563444E-04
  0.413000017       7.00000022E-03  -4.81312070E-03   3.53789546E-05  -1.70806379E-05  0.677667320      -1.20240358E-04
  0.420000017       7.00000022E-03  -4.87933820E-03   3.29407267E-05  -1.73199296E-05  0.686805487       7.14899797E-05
  0.427000016       7.00000022E-03  -4.94067743E-03   3.04047971E-05  -1.75418081E-05  0.695260823       2.69377721E-04
  0.434000015       7.00000022E-03  -4.99695307E-03   2.77734980E-05  -1.77455968E-05  0.703008115       4.73149674E-04
  0.441000015       7.00000022E-03  -5.04798442E-03   2.50493031E-05  -1.79306371E-05  0.710022926       6.82506070E-04
  0.448000014       7.00000022E-03  -5.09359781E-03   2.22351955E-05  -1.80962870E-05  0.716281652       8.97122489E-04
  0.455000013       7.00000022E-03  -5.13362652E-03   1.93354663E-05  -1.82419299E-05  0.721761703       1.11665041E-03
  0.462000012       7.00000022E-03  -5.16791129E-03   1.63542736E-05  -1.83669836E-05  0.726441741       1.34071812E-03
  0.469000012       7.00000022E-03  -5.19630173E-03   1.32957730E-05  -1.84708897E-05  0.730301499       1.56892650E-03
  0.476000011       7.00000022E-03  -5.21865673E-03   1.01656815E-05  -1.85531244E-05  0.733322203       1.80085446E-03
  0.483000010       7.00000022E-03  -5.23484591E-03   6.96906773E-06  -1.86132092E-05  0.735486627       2.03605485E-03
  0.490000010       7.00000022E-03  -5.24475286E-03   3.71203760E-06  -1.86506913E-05  0.736779094       2.27405177E-03
  0.497000009       7.00000022E-03  -5.24827093E-03   4.02646293E-07  -1.86651778E-05  0.737185597       2.51435814E-03
  0.504000008       7.00000022E-03  -5.24530839E-03  -2.95234963E-06  -1.86563284E-05  0.736694396       2.75645265E-03
  0.511000037       7.00000022E-03  -5.23578841E-03  -6.34567414E-06  -1.86238449E-05  0.735295355       2.99979676E-03
  0.518000007       7.00000022E-03  -5.21964906E-03  -9.76888259E-06  -1.85674890E-05  0.732980788       3.24383448E-03
  0.525000036       7.00000022E-03  -5.19684516E-03  -1.32132682E-05  -1.84870805E-05  0.729745030       3.48798814E-03
  0.532000005       7.00000022E-03  -5.16734924E-03  -1.66696082E-05  -1.83825032E-05  0.725584984       3.73166171E-03
  0.539000034       7.00000022E-03  -5.13115060E-03  -2.01282874E-05  -1.82537060E-05  0.720499933       3.97424959E-03
  0.546000004       7.00000022E-03  -5.08825947E-03  -2.35787793E-05  -1.81007072E-05  0.714491844       4.21512546E-03
  0.553000033       7.00000022E-03  -5.03870286E-03  -2.70117325E-05  -1.79236031E-05  0.707565248       4.45366092E-03
  0.560000002       7.00000022E-03  -4.98253107E-03  -3.04158402E-05  -1.77225429E-05  0.699727356       4.68920777E-03
  0.567000031       7.00000022E-03  -4.91981301E-03  -3.37798010E-05  -1.74977813E-05  0.690988421       4.92111966E-03
  0.574000001       7.00000022E-03  -4.85064089E-03  -3.70924427E-05  -1.72496257E-05  0.681361377       5.14874421E-03
  0.581000030       7.00000022E-03  -4.77512460E-03  -4.03432350E-05  -1.69784871E-05  0.670862377       5.37143741E-03
  0.588000000       7.00000022E-03  -4.69339965E-03  -4.35208785E-05  -1.66848204E-05  0.659510076       5.58854220E-03
  0.595000029       7.00000022E-03  -4.60562250E-03  -4.66121201E-05  -1.63691948E-05  0.647326469       5.79941506E-03
  0.601999998       7.00000022E-03  -4.51197103E-03  -4.96063076E-05  -1.60322506E-05  0.634336412       6.00342313E-03
  0.609000027       7.00000022E-03  -4.41264501E-03  -5.24921343E-05  -1.56747064E-05  0.620567799       6.19994337E-03
  0.615999997       7.00000022E-03  -4.30786842E-03  -5.52579731E-05  -1.52973607E-05  0.606051385       6.38836389E-03
  0.623000026       7.00000022E-03  -4.19788435E-03  -5.78916115E-05  -1.49010948E-05  0.590820909       6.56810077E-03
  0.629999995       7.00000022E-03  -4.08295821E-03  -6.03827793E-05  -1.44868782E-05  0.574913025       6.73858495E-03
  0.637000024       7.00000022E-03  -3.96337686E-03  -6.27208938E-05  -1.40557358E-05  0.558367014       6.89927442E-03
  0.643999994       7.00000022E-03  -3.83944530E-03  -6.48947826E-05  -1.36087856E-05  0.541225076       7.04966066E-03
  0.651000023       7.00000022E-03  -3.71148949E-03  -6.68950233E-05  -1.31472088E-05  0.523531795       7.18926126E-03
  0.657999992       7.00000022E-03  -3.57985427E-03  -6.87119973E-05  -1.26722553E-05  0.505334377       7.31763011E-03
  0.665000021       7.00000022E-03  -3.44490050E-03  -7.03362894E-05  -1.21852408E-05  0.486682326       7.43436348E-03
  0.672000051       7.00000022E-03  -3.30700632E-03  -7.17598450E-05  -1.16875472E-05  0.467627406       7.53909349E-03
  0.679000020       7.00000022E-03  -3.16656497E-03  -7.29751919E-05  -1.11806030E-05  0.448223203       7.63150165E-03
  0.686000049       7.00000022E-03  -3.02398321E-03  -7.39750467E-05  -1.06658945E-05  0.428525388       7.71131366E-03
  0.693000019       7.00000022E-03  -2.87968083E-03  -7.47532540E-05  -1.01449523E-05  0.408591121       7.77830323E-03
  0.700000048       7.00000022E-03  -2.73408787E-03  -7.53045970E-05  -9.61934893E-06  0.388479054       7.83229992E-03
  0.707000017       7.00000022E-03  -2.58764368E-03  -7.56244845E-05  -9.09068785E-06  0.368249118       7.87318498E-03
  0.714000046       7.00000022E-03  -2.44079484E-03  -7.57093221E-05  -8.56060615E-06  0.347962111       7.90089555E-03
  0.721000016       7.00000022E-03  -2.29399442E-03  -7.55563669E-05  -8.03075727E-06  0.327679724       7.91542325E-03