 VARIABLES = X,Y,U,V,sy,w,p
 ZONE     i=         101          j=         101                       F=POINT
   0.00000000       0.00000000       0.00000000       0.00000000       0.00000000       0.00000000       0.00000000    
   9.99999978E-03   0.00000000       0.00000000       0.00000000       0.00000000      -1.53886725E-03   0.00000000    
   1.99999996E-02   0.00000000       0.00000000       0.00000000       0.00000000      -4.75260522E-03  -8.44285205E-06
   2.99999993E-02   0.00000000       0.00000000       0.00000000       0.00000000      -7.95173645E-03  -4.13882335E-05
   3.99999991E-02   0.00000000       0.00000000       0.00000000       0.00000000      -1.00451019E-02  -1.03776285E-04
   4.99999970E-02   0.00000000       0.00000000       0.00000000       0.00000000      -1.04356073E-02  -1.93613610E-04
   5.99999987E-02   0.00000000       0.00000000       0.00000000       0.00000000      -8.83746147E-03  -3.05972149E-04
   7.00000003E-02   0.00000000       0.00000000       0.00000000       0.00000000      -5.14981337E-03  -4.35173453E-04
   7.99999982E-02   0.00000000       0.00000000       0.00000000       0.00000000       6.19016180E-04  -5.75764570E-04
   8.99999961E-02   0.00000000       0.00000000       0.00000000       0.00000000       8.39610957E-03  -7.22881348E-04
   9.99999940E-02   0.00000000       0.00000000       0.00000000       0.00000000       1.80706419E-02  -8.72336910E-04
  0.109999999       0.00000000       0.00000000       0.00000000       0.00000000       2.95102820E-02  -1.02059869E-03
  0.119999997       0.00000000       0.00000000       0.00000000       0.00000000       4.25717123E-02  -1.16472237E-03
  0.129999995       0.00000000       0.00000000       0.00000000       0.00000000       5.71075045E-02  -1.30227988E-03
  0.140000001       0.00000000       0.00000000       0.00000000       0.00000000       7.29704872E-02  -1.43128377E-03
  0.149999991       0.00000000       0.00000000       0.00000000       0.00000000       9.00166482E-02  -1.55012298E-03
  0.159999996       0.00000000       0.00000000       0.00000000       0.00000000      0.108107135      -1.65750261E-03
  0.170000002       0.00000000       0.00000000       0.00000000       0.00000000      0.127109155      -1.75239518E-03
  0.179999992       0.00000000       0.00000000       0.00000000       0.00000000      0.146896839      -1.83399266E-03
  0.189999998       0.00000000       0.00000000       0.00000000       0.00000000      0.167351216      -1.90166919E-03
  0.199999988       0.00000000       0.00000000       0.00000000       0.00000000      0.188360184      -1.95494969E-03
  0.209999993       0.00000000       0.00000000       0.00000000       0.00000000      0.209818244      -1.99348107E-03
  0.219999999       0.00000000       0.00000000       0.00000000       0.00000000      0.231626093      -2.01701093E-03
  0.229999989       0.00000000       0.00000000       0.00000000       0.00000000      0.253690124      -2.02536443E-03
  0.239999995       0.00000000       0.00000000       0.00000000       0.00000000      0.275921762      -2.01842352E-03
  0.250000000       0.00000000       0.00000000       0.00000000       0.00000000      0.298236609      -1.99612346E-03
  0.259999990       0.00000000       0.00000000       0.00000000       0.00000000      0.320554465      -1.95844192E-03
  0.269999981       0.00000000       0.00000000       0.00000000       0.00000000      0.342798054      -1.90538005E-03
  0.280000001       0.00000000       0.00000000       0.00000000       0.00000000      0.364892602      -1.83696928E-03
  0.289999992       0.00000000       0.00000000       0.00000000       0.00000000      0.386765152      -1.75325689E-03
  0.299999982       0.00000000       0.00000000       0.00000000       0.00000000      0.408344537      -1.65432249E-03
  0.310000002       0.00000000       0.00000000       0.00000000       0.00000000      0.429560572      -1.54025364E-03
  0.319999993       0.00000000       0.00000000       0.00000000       0.00000000      0.450343221      -1.41116348E-03
  0.329999983       0.00000000       0.00000000       0.00000000       0.00000000      0.470623106      -1.26719219E-03
  0.340000004       0.00000000       0.00000000       0.00000000       0.00000000      0.490330875      -1.10849668E-03
  0.349999994       0.00000000       0.00000000       0.00000000       0.00000000      0.509396732      -9.35273478E-04
  0.359999985       0.00000000       0.00000000       0.00000000       0.00000000      0.527750611      -7.47750746E-04
  0.370000005       0.00000000       0.00000000       0.00000000       0.00000000      0.545322418      -5.46199968E-04
  0.379999995       0.00000000       0.00000000       0.00000000       0.00000000      0.562041759      -3.30930343E-04
  0.389999986       0.00000000       0.00000000       0.00000000       0.00000000      0.577838063      -1.02307422E-04
  0.399999976       0.00000000       0.00000000       0.00000000       0.00000000      0.592640936       1.39244585E-04
  0.409999996       0.00000000       0.00000000       0.00000000       0.00000000      0.606380045       3.93241382E-04
  0.419999987       0.00000000       0.00000000       0.00000000       0.00000000      0.618986666       6.59123703E-04
  0.429999977       0.00000000       0.00000000       0.00000000       0.00000000      0.630392551       9.36262484E-04
  0.439999998       0.00000000       0.00000000       0.00000000       0.00000000      0.640531421       1.22396892E-03
  0.449999988       0.00000000       0.00000000       0.00000000       0.00000000      0.649339378       1.52145384E-03
  0.459999979       0.00000000       0.00000000       0.00000000       0.00000000      0.656754792       1.82785385E-03
  0.469999999       0.00000000       0.00000000       0.00000000       0.00000000      0.662719965       2.14223471E-03
  0.479999989       0.00000000       0.00000000       0.00000000       0.00000000      0.667181075       2.46356614E-03
  0.489999980       0.00000000       0.00000000       0.00000000       0.00000000      0.670089424       2.79071834E-03
  0.500000000       0.00000000       0.00000000       0.00000000       0.00000000      0.671401739       3.12249456E-03
  0.509999990       0.00000000       0.00000000       0.00000000       0.00000000      0.671080530       3.45762586E-03
  0.519999981       0.00000000       0.00000000       0.00000000       0.00000000      0.669096053       3.79475346E-03
  0.529999971       0.00000000       0.00000000       0.00000000       0.00000000      0.665425837       4.13245801E-03
  0.539999962       0.00000000       0.00000000       0.00000000       0.00000000      0.660055161       4.46925312E-03
  0.550000012       0.00000000       0.00000000       0.00000000       0.00000000      0.652978897       4.80359839E-03
  0.560000002       0.00000000       0.00000000       0.00000000       0.00000000      0.644201398       5.13391104E-03
  0.569999993       0.00000000       0.00000000       0.00000000       0.00000000      0.633737087       5.45856589E-03
  0.579999983       0.00000000       0.00000000       0.00000000       0.00000000      0.621610463       5.77592291E-03
  0.589999974       0.00000000       0.00000000       0.00000000       0.00000000      0.607857406       6.08432898E-03
  0.599999964       0.00000000       0.00000000       0.00000000       0.00000000      0.592524409       6.38213847E-03
  0.610000014       0.00000000       0.00000000       0.00000000       0.00000000      0.575669646       6.66772574E-03
  0.620000005       0.00000000       0.00000000       0.00000000       0.00000000      0.557362795       6.93948334E-03
  0.629999995       0.00000000       0.00000000       0.00000000       0.00000000      0.537684500       7.19588436E-03
  0.639999986       0.00000000       0.00000000       0.00000000       0.00000000      0.516726792       7.43545825E-03
  0.649999976       0.00000000       0.00000000       0.00000000       0.00000000      0.494592607       7.65682152E-03
  0.659999967       0.00000000       0.00000000       0.00000000       0.00000000      0.471395165       7.85869081E-03
  0.669999957       0.00000000       0.00000000       0.00000000       0.00000000      0.447257608       8.03990290E-03
  0.680000007       0.00000000       0.00000000       0.00000000       0.00000000      0.422312379       8.19942541E-03
  0.689999998       0.00000000       0.00000000       0.00000000       0.00000000      0.396700293       8.33639130E-03
  0.699999988       0.00000000       0.00000000       0.00000000       0.00000000      0.370569587       8.45007040E-03
  0.709999979       0.00000000       0.00000000       0.00000000       0.00000000      0.344075054       8.53992626E-03
  0.719999969       0.00000000       0.00000000       0.00000000       0.00000000      0.317376792       8.60561337E-03
  0.729999959       0.00000000       0.00000000       0.00000000       0.00000000      0.290639013       8.64697155E-03
  0.740000010       0.00000000       0.00000000       0.00000000       0.00000000      0.264028639       8.66405852E-03
  0.750000000       0.00000000       0.00000000       0.00000000       0.00000000      0.237714142       8.65714159E-03
  0.759999990       0.00000000       0.00000000       0.00000000       0.00000000      0.211864054       8.62670131E-03
  0.769999981       0.00000000       0.00000000       0.00000000       0.00000000      0.186645448       8.57343990E-03
  0.779999971       0.00000000       0.00000000       0.00000000       0.00000000      0.162222609       8.49827938E-03
  0.789999962       0.00000000       0.00000000       0.00000000       0.00000000      0.138755471       8.40235874E-03
  0.799999952       0.00000000       0.00000000       0.00000000       0.00000000      0.116398171       8.28703586E-03
  0.810000002       0.00000000       0.00000000       0.00000000       0.00000000       9.52974781E-02   8.15388188E-03
  0.819999993       0.00000000       0.00000000       0.00000000       0.00000000       7.55914599E-02   8.00468028E-03
  0.829999983       0.00000000       0.00000000       0.00000000       0.00000000       5.74079193E-02   7.84141477E-03
  0.839999974       0.00000000       0.00000000       0.00000000       0.00000000       4.08628695E-02   7.66626559E-03
  0.849999964       0.00000000       0.00000000       0.00000000       0.00000000       2.60589775E-02   7.48160342E-03
  0.859999955       0.00000000       0.00000000       0.00000000       0.00000000       1.30838919E-02   7.28998287E-03
  0.870000005       0.00000000       0.00000000       0.00000000       0.00000000       2.00830610E-03   7.09413923E-03
  0.879999995       0.00000000       0.00000000       0.00000000       0.00000000      -7.11624837E-03   6.89698057E-03
  0.889999986       0.00000000       0.00000000       0.00000000       0.00000000      -1.42601440E-02   6.70158397E-03
  0.899999976       0.00000000       0.00000000       0.00000000       0.00000000      -1.94192268E-02   6.51118951E-03
  0.909999967       0.00000000       0.00000000       0.00000000       0.00000000      -2.26196051E-02   6.32919138E-03
  0.919999957       0.00000000       0.00000000       0.00000000       0.00000000      -2.39244271E-02   6.15911977E-03
  0.930000007       0.00000000       0.00000000       0.00000000       0.00000000      -2.34436654E-02   6.00460637E-03
  0.939999998       0.00000000       0.00000000       0.00000000       0.00000000      -2.13487670E-02   5.86930756E-03
  0.949999988       0.00000000       0.00000000       0.00000000       0.00000000      -1.78949237E-02   5.75674837E-03
  0.959999979       0.00000000       0.00000000       0.00000000       0.00000000      -1.34552708E-02   5.67000220E-03
  0.969999969       0.00000000       0.00000000       0.00000000       0.00000000      -8.57137982E-03   5.61106019E-03
  0.979999959       0.00000000       0.00000000       0.00000000       0.00000000      -4.01674071E-03   5.57964528E-03
  0.989999950       0.00000000       0.00000000       0.00000000       0.00000000      -8.22419359E-04   5.57123823E-03
   1.00000000       0.00000000       0.00000000       0.00000000       0.00000000       0.00000000       5.57481218E-03
   0.00000000       9.99999978E-03   0.00000000       0.00000000       0.00000000      -1.53886725E-03   0.00000000    
   9.99999978E-03   9.99999978E-03   1.19012966E-05  -1.18815124E-05   7.69433584E-08  -1.67892349E-03   0.00000000    
   1.99999996E-02   9.99999978E-03   3.28911628E-05  -1.60321742E-05   2.37630246E-07  -1.81845448E-03   1.41095018E-06
   2.99999993E-02   9.99999978E-03   5.14621279E-05  -1.32312425E-05   3.97586831E-07  -1.78801070E-03  -2.70683577E-05
   3.99999991E-02   9.99999978E-03   5.98880033E-05  -6.20967603E-06   5.02255091E-07  -1.08136504E-03  -8.53077727E-05
   4.99999970E-02   9.99999978E-03   5.34889950E-05   3.01910040E-06   5.21780350E-07   7.31762731E-04  -1.69392064E-04
   5.99999987E-02   9.99999978E-03   2.97318402E-05   1.32144851E-05   4.41873084E-07   3.93543113E-03  -2.74090708E-04
   7.00000003E-02   9.99999978E-03  -1.24827111E-05   2.36411943E-05   2.57490655E-07   8.68655276E-03  -3.94061353E-04
   7.99999982E-02   9.99999978E-03  -7.33165944E-05   3.38648060E-05  -3.09508081E-08   1.50480969E-02  -5.24357310E-04
   8.99999961E-02   9.99999978E-03  -1.52326218E-04   4.36290647E-05  -4.19805474E-07   2.30175965E-02  -6.60602527E-04
   9.99999940E-02   9.99999978E-03  -2.48682394E-04   5.27854318E-05  -9.03532055E-07   3.25483344E-02  -7.99019530E-04
  0.109999999       9.99999978E-03  -3.61317798E-04   6.12526710E-05  -1.47551407E-06   4.35643643E-02  -9.36397468E-04
  0.119999997       9.99999978E-03  -4.89026017E-04   6.89930603E-05  -2.12858549E-06   5.59711270E-02  -1.07003551E-03
  0.129999995       9.99999978E-03  -6.30529888E-04   7.59969480E-05  -2.85537521E-06   6.96628541E-02  -1.19768386E-03
  0.140000001       9.99999978E-03  -7.84527627E-04   8.22728616E-05  -3.64852440E-06   8.45278278E-02  -1.31748233E-03
  0.149999991       9.99999978E-03  -9.49724577E-04   8.78416176E-05  -4.50083235E-06  0.100452021      -1.42790680E-03
  0.159999996       9.99999978E-03  -1.12485478E-03   9.27312649E-05  -5.40535666E-06  0.117321715      -1.52771990E-03
  0.170000002       9.99999978E-03  -1.30869483E-03   9.69742614E-05  -6.35545757E-06  0.135025188      -1.61592709E-03
  0.179999992       9.99999978E-03  -1.50007184E-03   1.00605146E-04  -7.34484183E-06  0.153453946      -1.69173721E-03
  0.189999998       9.99999978E-03  -1.69786764E-03   1.03658342E-04  -8.36756044E-06  0.172503307      -1.75452931E-03
  0.199999988       9.99999978E-03  -1.90102099E-03   1.06167594E-04  -9.41800863E-06  0.192072883      -1.80382491E-03
  0.209999993       9.99999978E-03  -2.10852502E-03   1.08164801E-04  -1.04909122E-05  0.212066621      -1.83925929E-03
  0.219999999       9.99999978E-03  -2.31942674E-03   1.09679699E-04  -1.15813045E-05  0.232392803      -1.86056562E-03
  0.229999989       9.99999978E-03  -2.53282045E-03   1.10739165E-04  -1.26845061E-05  0.252963811      -1.86754938E-03
  0.239999995       9.99999978E-03  -2.74784537E-03   1.11366171E-04  -1.37960878E-05  0.273695767      -1.86007877E-03
  0.250000000       9.99999978E-03  -2.96368008E-03   1.11581772E-04  -1.49118296E-05  0.294508278      -1.83807197E-03
  0.259999990       9.99999978E-03  -3.17953783E-03   1.11403642E-04  -1.60277232E-05  0.315323949      -1.80148892E-03
  0.269999981       9.99999978E-03  -3.39465914E-03   1.10845307E-04  -1.71399024E-05  0.336068034      -1.75031659E-03
  0.280000001       9.99999978E-03  -3.60831013E-03   1.09917710E-04  -1.82446292E-05  0.356667995      -1.68457406E-03
  0.289999992       9.99999978E-03  -3.81977297E-03   1.08629865E-04  -1.93382566E-05  0.377052993      -1.60429708E-03
  0.299999982       9.99999978E-03  -4.02834686E-03   1.06988591E-04  -2.04172266E-05  0.397153765      -1.50955340E-03
  0.310000002       9.99999978E-03  -4.23333934E-03   1.04996710E-04  -2.14780284E-05  0.416902065      -1.40042219E-03
  0.319999993       9.99999978E-03  -4.43406496E-03   1.02656304E-04  -2.25171607E-05  0.436230451      -1.27700996E-03
  0.329999983       9.99999978E-03  -4.62984387E-03   9.99691110E-05  -2.35311545E-05  0.455072135      -1.13944896E-03
  0.340000004       9.99999978E-03  -4.81999572E-03   9.69340399E-05  -2.45165429E-05  0.473360598      -9.87892156E-04
  0.349999994       9.99999978E-03  -5.00384159E-03   9.35493517E-05  -2.54698352E-05  0.491029739      -8.22528789E-04
  0.359999985       9.99999978E-03  -5.18070301E-03   8.98142389E-05  -2.63875299E-05  0.508013546      -6.43583131E-04
  0.370000005       9.99999978E-03  -5.34990057E-03   8.57278792E-05  -2.72661200E-05  0.524246335      -4.51316999E-04
  0.379999995       9.99999978E-03  -5.51075302E-03   8.12890939E-05  -2.81020875E-05  0.539662778      -2.46033102E-04
  0.389999986       9.99999978E-03  -5.66258328E-03   7.64978759E-05  -2.88919018E-05  0.554197848      -2.80912554E-05
  0.399999976       9.99999978E-03  -5.80471661E-03   7.13550471E-05  -2.96320450E-05  0.567787290       2.02099443E-04
  0.409999996       9.99999978E-03  -5.93648572E-03   6.58644276E-05  -3.03190027E-05  0.580367625       4.44067060E-04
  0.419999987       9.99999978E-03  -6.05723215E-03   6.00311978E-05  -3.09493334E-05  0.591876745       6.97276846E-04
  0.429999977       9.99999978E-03  -6.16631331E-03   5.38619133E-05  -3.15196266E-05  0.602254093       9.61121870E-04
  0.439999998       9.99999978E-03  -6.26310147E-03   4.73670298E-05  -3.20265717E-05  0.611441076       1.23493443E-03
  0.449999988       9.99999978E-03  -6.34699548E-03   4.05583705E-05  -3.24669672E-05  0.619381607       1.51795882E-03
  0.459999979       9.99999978E-03  -6.41742162E-03   3.34515789E-05  -3.28377391E-05  0.626022637       1.80936919E-03
  0.469999999       9.99999978E-03  -6.47384021E-03   2.60657544E-05  -3.31359988E-05  0.631314635       2.10826308E-03
  0.479999989       9.99999978E-03  -6.51575346E-03   1.84236342E-05  -3.33590542E-05  0.635211945       2.41365237E-03
  0.489999980       9.99999978E-03  -6.54271245E-03   1.05515937E-05  -3.35044715E-05  0.637673795       2.72446545E-03
  0.500000000       9.99999978E-03  -6.55432092E-03   2.47764547E-06  -3.35700861E-05  0.638664544       3.03956307E-03
  0.509999990       9.99999978E-03  -6.55024126E-03  -5.76419552E-06  -3.35540244E-05  0.638154447       3.35773313E-03
  0.519999981       9.99999978E-03  -6.53020432E-03  -1.41366399E-05  -3.34548022E-05  0.636120081       3.67768644E-03
  0.529999971       9.99999978E-03  -6.49401266E-03  -2.26022166E-05  -3.32712916E-05  0.632544994       3.99807282E-03
  0.539999962       9.99999978E-03  -6.44155079E-03  -3.11174517E-05  -3.30027578E-05  0.627420306       4.31747828E-03
  0.550000012       9.99999978E-03  -6.37278566E-03  -3.96345058E-05  -3.26489426E-05  0.620745063       4.63444693E-03
  0.560000002       9.99999978E-03  -6.28777361E-03  -4.81044481E-05  -3.22100677E-05  0.612526715       4.94747842E-03
  0.569999993       9.99999978E-03  -6.18666736E-03  -5.64772563E-05  -3.16868536E-05  0.602781832       5.25503652E-03
  0.579999983       9.99999978E-03  -6.06971839E-03  -6.46992703E-05  -3.10805226E-05  0.591535866       5.55556919E-03
  0.589999974       9.99999978E-03  -5.93727874E-03  -7.27151055E-05  -3.03928682E-05  0.578823984       5.84751880E-03
  0.599999964       9.99999978E-03  -5.78980613E-03  -8.04692754E-05  -2.96262206E-05  0.564690888       6.12933002E-03
  0.610000014       9.99999978E-03  -5.62786264E-03  -8.79040308E-05  -2.87834828E-05  0.549191117       6.39947178E-03
  0.620000005       9.99999978E-03  -5.45211928E-03  -9.49628884E-05  -2.78681400E-05  0.532388985       6.65643951E-03
  0.629999995       9.99999978E-03  -5.26334951E-03  -1.01590012E-04  -2.68842250E-05  0.514358580       6.89879339E-03
  0.639999986       9.99999978E-03  -5.06243203E-03  -1.07729742E-04  -2.58363398E-05  0.495183408       7.12515227E-03
  0.649999976       9.99999978E-03  -4.85034613E-03  -1.13329137E-04  -2.47296302E-05  0.474956304       7.33421976E-03
  0.659999967       9.99999978E-03  -4.62816749E-03  -1.18337543E-04  -2.35697571E-05  0.453778893       7.52479583E-03
  0.669999957       9.99999978E-03  -4.39706445E-03  -1.22706930E-04  -2.23628795E-05  0.431761175       7.69579317E-03
  0.680000007       9.99999978E-03  -4.15829010E-03  -1.26393294E-04  -2.11156184E-05  0.409020931       7.84625392E-03
  0.689999998       9.99999978E-03  -3.91317299E-03  -1.29356980E-04  -1.98350135E-05  0.385682911       7.97536876E-03
  0.699999988       9.99999978E-03  -3.66311357E-03  -1.31563051E-04  -1.85284789E-05  0.361878246       8.08246993E-03
  0.709999979       9.99999978E-03  -3.40957032E-03  -1.32981950E-04  -1.72037526E-05  0.337743282       8.16706754E-03
  0.719999969       9.99999978E-03  -3.15404986E-03  -1.33590132E-04  -1.58688399E-05  0.313418776       8.22884962E-03
  0.729999959       9.99999978E-03  -2.89809774E-03  -1.33370399E-04  -1.45319500E-05  0.289048821       8.26768577E-03
  0.740000010       9.99999978E-03  -2.64328346E-03  -1.32312154E-04  -1.32014320E-05  0.264779776       8.28364678E-03
  0.750000000       9.99999978E-03  -2.39118934E-03  -1.30411499E-04  -1.18857070E-05  0.240758955       8.27700086E-03
  0.759999990       9.99999978E-03  -2.14339723E-03  -1.27671738E-04  -1.05932022E-05  0.217133492       8.24822020E-03
  0.769999981       9.99999978E-03  -1.90147478E-03  -1.24103608E-04  -9.33227238E-06  0.194049075       8.19798559E-03
  0.779999971       9.99999978E-03  -1.66696182E-03  -1.19724951E-04  -8.11113023E-06  0.171648622       8.12718272E-03
  0.789999962       9.99999978E-03  -1.44135556E-03  -1.14561095E-04  -6.93777338E-06  0.150070965       8.03690590E-03
  0.799999952       9.99999978E-03  -1.22609735E-03  -1.08644985E-04  -5.81990844E-06  0.129449531       7.92845152E-03
  0.810000002       9.99999978E-03  -1.02255819E-03  -1.02016769E-04  -4.76487367E-06  0.109910943       7.80331716E-03
  0.819999993       9.99999978E-03  -8.32024030E-04  -9.47238877E-05  -3.77957303E-06   9.15736109E-02   7.66319502E-03
  0.829999983       9.99999978E-03  -6.55681710E-04  -8.68214775E-05  -2.87039597E-06   7.45463669E-02   7.50996592E-03
  0.839999974       9.99999978E-03  -4.94603766E-04  -7.83723590E-05  -2.04314347E-06   5.89269027E-02   7.34569272E-03
  0.849999964       9.99999978E-03  -3.49732756E-04  -6.94474438E-05  -1.30294882E-06   4.48002107E-02   7.17261294E-03
  0.859999955       9.99999978E-03  -2.21864466E-04  -6.01266765E-05  -6.54194594E-07   3.22368518E-02   6.99313311E-03
  0.870000005       9.99999978E-03  -1.11628709E-04  -5.05003518E-05  -1.00415306E-07   2.12909840E-02   6.80982042E-03
  0.879999995       9.99999978E-03  -1.94675649E-05  -4.06711260E-05   3.55812404E-07   1.19981095E-02   6.62539620E-03
  0.889999986       9.99999978E-03   5.43915121E-05  -3.07574446E-05   7.13007182E-07   4.37231502E-03   6.44272845E-03
  0.899999976       9.99999978E-03   1.09969362E-04  -2.08986512E-05   9.70961310E-07  -1.59713253E-03   6.26482442E-03
  0.909999967       9.99999978E-03   1.47579136E-04  -1.12630005E-05   1.13098019E-06  -5.95013471E-03   6.09481847E-03
  0.919999957       9.99999978E-03   1.67885562E-04  -2.06015329E-06   1.19622132E-06  -8.76140129E-03   5.93595579E-03
  0.930000007       9.99999978E-03   1.71986117E-04   6.43914882E-06   1.17218326E-06  -1.01477820E-02   5.79155982E-03
  0.939999998       9.99999978E-03   1.61523960E-04   1.38718551E-05   1.06743835E-06  -1.02776242E-02   5.66497818E-03
  0.949999988       9.99999978E-03   1.38844480E-04   1.97337413E-05   8.94746165E-07  -9.38188843E-03   5.55947237E-03
  0.959999979       9.99999978E-03   1.07207008E-04   2.33088595E-05   6.72763520E-07  -7.76458392E-03   5.47801051E-03
  0.969999969       9.99999978E-03   7.10479508E-05   2.35963253E-05   4.28568995E-07  -5.80319809E-03   5.42286830E-03
  0.979999959       9.99999978E-03   3.62304127E-05   1.93724027E-05   2.00837036E-07  -3.90971592E-03   5.39487693E-03
  0.989999950       9.99999978E-03   1.00200787E-05   1.00418520E-05   4.11209662E-08  -2.36768997E-03   5.39206760E-03
   1.00000000       9.99999978E-03   0.00000000       0.00000000       0.00000000      -8.22419359E-04   5.40754478E-03
   0.00000000       1.99999996E-02   0.00000000       0.00000000       0.00000000      -4.76051867E-03   8.51010736E-06
   9.99999978E-03   1.99999996E-02   1.61250737E-05  -3.28911628E-05   2.38025919E-07  -1.82120781E-03   8.51010736E-06
   1.99999996E-02   1.99999996E-02   3.97222502E-05  -3.95608295E-05   6.57823250E-07   9.43232502E-04   9.06972855E-06
   2.99999993E-02   1.99999996E-02   5.48302560E-05  -2.69968423E-05   1.02924253E-06   3.69624118E-03  -1.85950885E-05
   3.99999991E-02   1.99999996E-02   5.05164899E-05  -2.02686579E-06   1.19776007E-06   6.77202968E-03  -7.18174633E-05
   4.99999970E-02   1.99999996E-02   1.96367291E-05   3.01561649E-05   1.06977984E-06   1.05045885E-02  -1.47064347E-04
   5.99999987E-02   1.99999996E-02  -4.20508222E-05   6.59717043E-05   5.94636788E-07   1.51573000E-02  -2.40193243E-04
   7.00000003E-02   1.99999996E-02  -1.36643037E-04   1.03048435E-04  -2.49654221E-07   2.09099855E-02  -3.46921734E-04
   7.99999982E-02   1.99999996E-02  -2.64702045E-04   1.39843498E-04  -1.46633192E-06   2.78683659E-02  -4.63150762E-04
   8.99999961E-02   1.99999996E-02  -4.25718841E-04   1.75365800E-04  -3.04652417E-06   3.60792167E-02  -5.85134781E-04
   9.99999940E-02   1.99999996E-02  -6.18453836E-04   2.08991594E-04  -4.97364772E-06   4.55448367E-02  -7.09549407E-04
  0.109999999       1.99999996E-02  -8.41183180E-04   2.40343637E-04  -7.22635605E-06   5.62350266E-02  -8.33501399E-04
  0.119999997       1.99999996E-02  -1.09187653E-03   2.69212091E-04  -9.78052049E-06   6.80964515E-02  -9.54509538E-04
  0.129999995       1.99999996E-02  -1.36832322E-03   2.95501552E-04  -1.26105979E-05   8.10597688E-02  -1.07046764E-03
  0.140000001       1.99999996E-02  -1.66822399E-03   3.19194689E-04  -1.56905517E-05   9.50449929E-02  -1.17960828E-03
  0.149999991       1.99999996E-02  -1.98925473E-03   3.40327184E-04  -1.89944913E-05  0.109965488      -1.28045969E-03
  0.159999996       1.99999996E-02  -2.32911296E-03   3.58970283E-04  -2.24970954E-05  0.125730917      -1.37180998E-03
  0.170000002       1.99999996E-02  -2.68554757E-03   3.75217060E-04  -2.61738969E-05  0.142249435      -1.45266764E-03
  0.179999992       1.99999996E-02  -3.05637880E-03   3.89172783E-04  -3.00014362E-05  0.159429222      -1.52223231E-03
  0.189999998       1.99999996E-02  -3.43951117E-03   4.00949124E-04  -3.39573526E-05  0.177179575      -1.57986500E-03
  0.199999988       1.99999996E-02  -3.83293885E-03   4.10657434E-04  -3.80204183E-05  0.195411652      -1.62506185E-03
  0.209999993       1.99999996E-02  -4.23474656E-03   4.18405776E-04  -4.21705008E-05  0.214038938      -1.65743020E-03
  0.219999999       1.99999996E-02  -4.64310776E-03   4.24295285E-04  -4.63885335E-05  0.232977495      -1.67667016E-03
  0.229999989       1.99999996E-02  -5.05627645E-03   4.28418571E-04  -5.06564065E-05  0.252145976      -1.68255402E-03
  0.239999995       1.99999996E-02  -5.47258696E-03   4.30859654E-04  -5.49569049E-05  0.271465749      -1.67492637E-03
  0.250000000       1.99999996E-02  -5.89044299E-03   4.31692577E-04  -5.92735996E-05  0.290860534      -1.65367813E-03
  0.259999990       1.99999996E-02  -6.30830601E-03   4.30979184E-04  -6.35907563E-05  0.310256422      -1.61873805E-03
  0.269999981       1.99999996E-02  -6.72469102E-03   4.28772182E-04  -6.78931829E-05  0.329581589      -1.57007598E-03
  0.280000001       1.99999996E-02  -7.13815680E-03   4.25113831E-04  -7.21662000E-05  0.348766088      -1.50768843E-03
  0.289999992       1.99999996E-02  -7.54729891E-03   4.20036667E-04  -7.63954595E-05  0.367741495      -1.43160112E-03
  0.299999982       1.99999996E-02  -7.95073621E-03   4.13566158E-04  -8.05669333E-05  0.386440843      -1.34185527E-03
  0.310000002       1.99999996E-02  -8.34711269E-03   4.05718311E-04  -8.46667826E-05  0.404798299      -1.23852596E-03
  0.319999993       1.99999996E-02  -8.73508491E-03   3.96504416E-04  -8.86812995E-05  0.422748983      -1.12170668E-03
  0.329999983       1.99999996E-02  -9.11332015E-03   3.85930616E-04  -9.25968707E-05  0.440228879      -9.91516281E-04
  0.340000004       1.99999996E-02  -9.48049221E-03   3.73998046E-04  -9.63999119E-05  0.457174659      -8.48105527E-04
  0.349999994       1.99999996E-02  -9.83527955E-03   3.60707432E-04  -1.00076832E-04  0.473523736      -6.91652065E-04
  0.359999985       1.99999996E-02  -1.01763643E-02   3.46058747E-04  -1.03614060E-04  0.489214122      -5.22372662E-04
  0.370000005       1.99999996E-02  -1.05024297E-02   3.30049807E-04  -1.06998006E-04  0.504184544      -3.40515573E-04
  0.379999995       1.99999996E-02  -1.08121643E-02   3.12682823E-04  -1.10215056E-04  0.518374503      -1.46379287E-04
  0.389999986       1.99999996E-02  -1.11042652E-02   2.93963618E-04  -1.13251663E-04  0.531724274       5.96893333E-05
  0.399999976       1.99999996E-02  -1.13774408E-02   2.73902348E-04  -1.16094328E-04  0.544175506       2.77297106E-04
  0.409999996       1.99999996E-02  -1.16304178E-02   2.52515747E-04  -1.18729709E-04  0.555671036       5.05988195E-04
  0.419999987       1.99999996E-02  -1.18619446E-02   2.29827492E-04  -1.21144643E-04  0.566155195       7.45256024E-04
  0.429999977       1.99999996E-02  -1.20707974E-02   2.05869219E-04  -1.23326259E-04  0.575574458       9.94526665E-04
  0.439999998       1.99999996E-02  -1.22557972E-02   1.80682400E-04  -1.25262028E-04  0.583877504       1.25314586E-03