 VARIABLES = Voriteration,VorticityRes,Streamite1,Error
 ZONE
           1   21780.0000              10   1.00000005E-03
           2   3755.71631              20   1.00000005E-03
           3   3075.67822              30   1.00000005E-03
           4   2497.71411              40   1.00000005E-03
           5   2042.88818              50   1.00000005E-03
           6   1689.10132              60   1.00000005E-03
           7   1413.21985              70   1.00000005E-03
           8   1196.68298              80   1.00000005E-03
           9   1025.22986              90   1.00000005E-03
          10   887.832886             100   1.00000005E-03
          11   817.263489             110   1.00000005E-03
          12   757.902771             120   1.00000005E-03
          13   704.933228             130   1.00000005E-03
          14   657.251160             140   1.00000005E-03
          15   614.164795             150   1.00000005E-03
          16   575.105469             160   1.00000005E-03
          17   539.598999             170   1.00000005E-03
          18   507.283447             180   1.00000005E-03
          19   477.838257             190   1.00000005E-03
          20   450.965759             200   1.00000005E-03
          21   426.393585             210   1.00000005E-03
          22   403.881897             220   1.00000005E-03
          23   383.247864             230   1.00000005E-03
          24   364.265106             240   1.00000005E-03
          25   346.765686             250   1.00000005E-03
          26   330.610474             260   1.00000005E-03
          27   315.671753             270   1.00000005E-03
          28   301.853943             280   1.00000005E-03
          29   291.594818             290   1.00000005E-03
          30   282.381866             300   1.00000005E-03
          31   273.767059             310   1.00000005E-03
          32   265.621582             320   1.00000005E-03
          33   257.879578             330   1.00000005E-03
          34   250.505280             340   1.00000005E-03
          35   243.478226             350   1.00000005E-03
          36   236.775513             360   1.00000005E-03
          37   230.373505             370   1.00000005E-03
          38   224.263596             380   1.00000005E-03
          39   218.426407             390   1.00000005E-03
          40   212.830124             400   1.00000005E-03
          41   207.464203             410   1.00000005E-03
          42   202.311691             420   1.00000005E-03
          43   197.375580             430   1.00000005E-03
          44   192.637100             440   1.00000005E-03
          45   188.079254             450   1.00000005E-03
          46   183.697021             460   1.00000005E-03
          47   179.478455             470   1.00000005E-03
          48   175.416321             480   1.00000005E-03
          49   171.501373             490   1.00000005E-03
          50   167.727325             500   1.00000005E-03
          51   164.089203             510   1.00000005E-03
          52   160.581543             520   1.00000005E-03
          53   157.197113             530   1.00000005E-03
          54   153.930450             540   1.00000005E-03
          55   150.780136             550   1.00000005E-03
          56   147.747726             560   1.00000005E-03
          57   145.097885             570   1.00000005E-03
          58   142.631561             580   1.00000005E-03
          59   140.275955             590   1.00000005E-03
          60   138.006577             600   1.00000005E-03
          61   135.810150             610   1.00000005E-03
          62   133.677643             620   1.00000005E-03
          63   131.604065             630   1.00000005E-03
          64   129.588959             640   1.00000005E-03
          65   127.625160             650   1.00000005E-03
          66   125.711487             660   1.00000005E-03
          67   123.845154             670   1.00000005E-03
          68   122.023254             680   1.00000005E-03
          69   120.247940             690   1.00000005E-03
          70   118.517090             700   1.00000005E-03
          71   116.827446             710   1.00000005E-03
          72   115.179832             720   1.00000005E-03
          73   113.569145             730   1.00000005E-03
          74   111.992805             740   1.00000005E-03
          75   110.455879             750   1.00000005E-03
          76   108.953392             760   1.00000005E-03
          77   107.486816             770   1.00000005E-03
          78   106.050476             780   1.00000005E-03
          79   104.644859             790   1.00000005E-03
          80   103.271217             800   1.00000005E-03
          81   101.925980             810   1.00000005E-03
          82   100.610474             820   1.00000005E-03
          83   99.3220520             830   1.00000005E-03
          84   98.0599976             840   1.00000005E-03
          85   96.8264084             850   1.00000005E-03
          86   95.6173553             860   1.00000005E-03
          87   94.4312439             870   1.00000005E-03
          88   93.2690659             880   1.00000005E-03
          89   92.1285248             890   1.00000005E-03
          90   91.0100555             900   1.00000005E-03
          91   89.9132462             910   1.00000005E-03
          92   88.8355026             920   1.00000005E-03
          93   87.7789764             930   1.00000005E-03
          94   86.7433472             940   1.00000005E-03
          95   85.7418442             950   1.00000005E-03
          96   84.8031082             960   1.00000005E-03
          97   83.8995514             970   1.00000005E-03
          98   83.0218201             980   1.00000005E-03
          99   82.1657104             990   1.00000005E-03
         100   81.3284912            1000   1.00000005E-03
         101   80.5101624            1010   1.00000005E-03
         102   79.7061310            1020   1.00000005E-03
         103   78.9178848            1030   1.00000005E-03
         104   78.1417847            1040   1.00000005E-03
         105   77.3803711            1050   1.00000005E-03
         106   76.6311722            1060   1.00000005E-03
         107   75.8960114            1070   1.00000005E-03
         108   75.1707001            1080   1.00000005E-03
         109   74.4580078            1090   1.00000005E-03
         110   73.7557526            1100   1.00000005E-03
         111   73.0641251            1110   1.00000005E-03
         112   72.3824921            1120   1.00000005E-03
         113   71.7119446            1130   1.00000005E-03
         114   71.0530396            1140   1.00000005E-03
         115   70.4018173            1150   1.00000005E-03
         116   69.7611084            1160   1.00000005E-03
         117   69.1304779            1170   1.00000005E-03
         118   68.5081787            1180   1.00000005E-03
         119   67.8952026            1190   1.00000005E-03
         120   67.2913666            1200   1.00000005E-03
         121   66.6966553            1210   1.00000005E-03
         122   66.1119919            1220   1.00000005E-03
         123   65.5344009            1230   1.00000005E-03
         124   64.9652863            1240   1.00000005E-03
         125   64.4055176            1250   1.00000005E-03
         126   63.8527718            1260   1.00000005E-03
         127   63.3096352            1270   1.00000005E-03
         128   62.7730026            1280   1.00000005E-03
         129   62.2439346            1290   1.00000005E-03
         130   61.7223511            1300   1.00000005E-03
         131   61.2069969            1310   1.00000005E-03
         132   60.6991844            1320   1.00000005E-03
         133   60.1985779            1330   1.00000005E-03
         134   59.7038574            1340   1.00000005E-03
         135   59.2161903            1350   1.00000005E-03
         136   58.7348213            1360   1.00000005E-03
         137   58.2596397            1370   1.00000005E-03
         138   57.7910767            1380   1.00000005E-03
         139   57.3282776            1390   1.00000005E-03
         140   56.8708038            1400   1.00000005E-03
         141   56.4206429            1410   1.00000005E-03
         142   55.9745712            1420   1.00000005E-03
         143   55.5351143            1430   1.00000005E-03
         144   55.1016273            1440   1.00000005E-03
         145   54.6725922            1450   1.00000005E-03
         146   54.2543106            1460   1.00000005E-03
         147   53.8492775            1470   1.00000005E-03
         148   53.4542618            1480   1.00000005E-03
         149   53.0663795            1490   1.00000005E-03
         150   52.6851540            1500   1.00000005E-03
         151   52.3107681            1510   1.00000005E-03
         152   51.9405785            1520   1.00000005E-03
         153   51.5770378            1530   1.00000005E-03
         154   51.2189369            1540   1.00000005E-03
         155   50.8649063            1550   1.00000005E-03
         156   50.5166054            1560   1.00000005E-03
         157   50.1715546            1570   1.00000005E-03
         158   49.8308296            1580   1.00000005E-03
         159   49.4949608            1590   1.00000005E-03
         160   49.1622086            1600   1.00000005E-03
         161   48.8343620            1610   1.00000005E-03
         162   48.5095253            1620   1.00000005E-03
         163   48.1885567            1630   1.00000005E-03
         164   47.8709221            1640   1.00000005E-03
         165   47.5575256            1650   1.00000005E-03
         166   47.2472229            1660   1.00000005E-03
         167   46.9404182            1670   1.00000005E-03
         168   46.6370430            1680   1.00000005E-03
         169   46.3371773            1690   1.00000005E-03
         170   46.0401039            1700   1.00000005E-03
         171   45.7464676            1710   1.00000005E-03
         172   45.4563026            1720   1.00000005E-03
         173   45.1692123            1730   1.00000005E-03
         174   44.8855934            1740   1.00000005E-03
         175   44.6040611            1750   1.00000005E-03
         176   44.3254166            1760   1.00000005E-03
         177   44.0508614            1770   1.00000005E-03
         178   43.7778015            1780   1.00000005E-03
         179   43.5081100            1790   1.00000005E-03
         180   43.2411499            1800   1.00000005E-03
         181   42.9762764            1810   1.00000005E-03
         182   42.7151642            1820   1.00000005E-03
         183   42.4561310            1830   1.00000005E-03
         184   42.2001724            1840   1.00000005E-03
         185   41.9470749            1850   1.00000005E-03
         186   41.6962242            1860   1.00000005E-03
         187   41.4483757            1870   1.00000005E-03
         188   41.2037354            1880   1.00000005E-03
         189   40.9608002            1890   1.00000005E-03
         190   40.7197914            1900   1.00000005E-03
         191   40.4827042            1910   1.00000005E-03
         192   40.2468452            1920   1.00000005E-03
         193   40.0135612            1930   1.00000005E-03
         194   39.7830925            1940   1.00000005E-03
         195   39.5540466            1950   1.00000005E-03
         196   39.3278923            1960   1.00000005E-03
         197   39.1034012            1970   1.00000005E-03
         198   38.8822174            1980   1.00000005E-03
         199   38.6612892            1990   1.00000005E-03
         200   38.4445839            2000   1.00000005E-03
         201   38.2278366            2010   1.00000005E-03
         202   38.0152473            2020   1.00000005E-03
         203   37.8033371            2030   1.00000005E-03
         204   37.5929375            2040   1.00000005E-03
         205   37.3858414            2050   1.00000005E-03
         206   37.1797752            2060   1.00000005E-03
         207   36.9757004            2070   1.00000005E-03
         208   36.7741508            2080   1.00000005E-03
         209   36.5739212            2090   1.00000005E-03
         210   36.3754005            2100   1.00000005E-03
         211   36.1783028            2110   1.00000005E-03
         212   35.9871140            2120   1.00000005E-03
         213   35.7989006            2130   1.00000005E-03
         214   35.6127319            2140   1.00000005E-03
         215   35.4299011            2150   1.00000005E-03
         216   35.2491379            2160   1.00000005E-03
         217   35.0700455            2170   1.00000005E-03
         218   34.8926964            2180   1.00000005E-03
         219   34.7175674            2190   1.00000005E-03
         220   34.5439606            2200   1.00000005E-03
         221   34.3722191            2210   1.00000005E-03
         222   34.2017593            2220   1.00000005E-03
         223   34.0330009            2230   1.00000005E-03
         224   33.8667107            2240   1.00000005E-03
         225   33.7007942            2250   1.00000005E-03
         226   33.5369835            2260   1.00000005E-03
         227   33.3747025            2270   1.00000005E-03
         228   33.2143135            2280   1.00000005E-03
         229   33.0547218            2290   1.00000005E-03
         230   32.8959045            2300   1.00000005E-03
         231   32.7401962            2310   1.00000005E-03
         232   32.5846977            2320   1.00000005E-03
         233   32.4306908            2330   1.00000005E-03
         234   32.2774620            2340   1.00000005E-03
         235   32.1264229            2350   1.00000005E-03
         236   31.9762402            2360   1.00000005E-03
         237   31.8275700            2370   1.00000005E-03
         238   31.6796398            2380   1.00000005E-03
         239   31.5331326            2390   1.00000005E-03
         240   31.3882046            2400   1.00000005E-03
         241   31.2437744            2410   1.00000005E-03
         242   31.1009350            2420   1.00000005E-03
         243   30.9595604            2430   1.00000005E-03
         244   30.8192348            2440   1.00000005E-03
         245   30.6792889            2450   1.00000005E-03
         246   30.5420513            2460   1.00000005E-03
         247   30.4044495            2470   1.00000005E-03
         248   30.2680283            2480   1.00000005E-03
         249   30.1332455            2490   1.00000005E-03
         250   29.9995861            2500   1.00000005E-03
         251   29.8662243            2510   1.00000005E-03
         252   29.7349281            2520   1.00000005E-03
         253   29.6042213            2530   1.00000005E-03
         254   29.4745789            2540   1.00000005E-03
         255   29.3450642            2550   1.00000005E-03
         256   29.2184105            2560   1.00000005E-03
         257   29.0912399            2570   1.00000005E-03
         258   28.9661217            2580   1.00000005E-03
         259   28.8408241            2590   1.00000005E-03
         260   28.7183094            2600   1.00000005E-03
         261   28.5959435            2610   1.00000005E-03
         262   28.4740219            2620   1.00000005E-03
         263   28.3535213            2630   1.00000005E-03
         264   28.2347050            2640   1.00000005E-03
         265   28.1156502            2650   1.00000005E-03
         266   27.9971809            2660   1.00000005E-03
         267   27.8807602            2670   1.00000005E-03
         268   27.7643433            2680   1.00000005E-03
         269   27.6490002            2690   1.00000005E-03
         270   27.5347576            2700   1.00000005E-03
         271   27.4216881            2710   1.00000005E-03
         272   27.3095436            2720   1.00000005E-03
         273   27.1965694            2730   1.00000005E-03
         274   27.0856686            2740   1.00000005E-03
         275   26.9757710            2750   1.00000005E-03
         276   26.8657417            2760   1.00000005E-03
         277   26.7580719            2770   1.00000005E-03
         278   26.6491680            2780   1.00000005E-03
         279   26.5419903            2790   1.00000005E-03
         280   26.4358902            2800   1.00000005E-03
         281   26.3301830            2810   1.00000005E-03
         282   26.2253513            2820   1.00000005E-03
         283   26.1203899            2830   1.00000005E-03
         284   26.0177364            2840   1.00000005E-03
         285   25.9142971            2850   1.00000005E-03
         286   25.8118553            2860   1.00000005E-03
         287   25.7112427            2870   1.00000005E-03
         288   25.6097794            2880   1.00000005E-03
         289   25.5096836            2890   1.00000005E-03
         290   25.4109955            2900   1.00000005E-03
         291   25.3112698            2910   1.00000005E-03
         292   25.2129517            2920   1.00000005E-03
         293   25.1156845            2930   1.00000005E-03
         294   25.0202599            2940   1.00000005E-03
         295   24.9253674            2950   1.00000005E-03
         296   24.8314133            2960   1.00000005E-03
         297   24.7394714            2970   1.00000005E-03
         298   24.6465187            2980   1.00000005E-03
         299   24.5564079            2990   1.00000005E-03
         300   24.4655037            3000   1.00000005E-03
         301   24.3754978            3010   1.00000005E-03
         302   24.2864494            3020   1.00000005E-03
         303   24.1982422            3030   1.00000005E-03
         304   24.1104050            3040   1.00000005E-03
         305   24.0230865            3050   1.00000005E-03
         306   23.9376125            3060   1.00000005E-03
         307   23.8516731            3070   1.00000005E-03
         308   23.7658405            3080   1.00000005E-03
         309   23.6819077            3090   1.00000005E-03
         310   23.5979385            3100   1.00000005E-03
         311   23.5135098            3110   1.00000005E-03
         312   23.4309635            3120   1.00000005E-03
         313   23.3489933            3130   1.00000005E-03
         314   23.2670860            3140   1.00000005E-03
         315   23.1857681            3150   1.00000005E-03
         316   23.1047478            3160   1.00000005E-03
         317   23.0247402            3170   1.00000005E-03
         318   22.9442844            3180   1.00000005E-03
         319   22.8653660            3190   1.00000005E-03
         320   22.7870293            3200   1.00000005E-03
         321   22.7074223            3210   1.00000005E-03
         322   22.6309071            3220   1.00000005E-03
         323   22.5531158            3230   1.00000005E-03
         324   22.4764462            3240   1.00000005E-03
         325   22.4000473            3250   1.00000005E-03
         326   22.3239994            3260   1.00000005E-03
         327   22.2481976            3270   1.00000005E-03
         328   22.1732616            3280   1.00000005E-03
         329   22.1000900            3290   1.00000005E-03
         330   22.0250931            3300   1.00000005E-03
         331   21.9517441            3310   1.00000005E-03
         332   21.8780193            3320   1.00000005E-03
         333   21.8058357            3330   1.00000005E-03
         334   21.7339592            3340   1.00000005E-03
         335   21.6620102            3350   1.00000005E-03
         336   21.5902176            3360   1.00000005E-03
         337   21.5196514            3370   1.00000005E-03
         338   21.4487419            3380   1.00000005E-03
         339   21.3787918            3390   1.00000005E-03
         340   21.3088646            3400   1.00000005E-03
         341   21.2397118            3410   1.00000005E-03
         342   21.1712151            3420   1.00000005E-03
         343   21.1026173            3430   1.00000005E-03
         344   21.0342579            3440   1.00000005E-03
         345   20.9677296            3450   1.00000005E-03
         346   20.9012394            3460   1.00000005E-03
         347   20.8333340            3470   1.00000005E-03
         348   20.7674961            3480   1.00000005E-03
         349   20.7021103            3490   1.00000005E-03
         350   20.6367226            3500   1.00000005E-03
         351   20.5716724            3510   1.00000005E-03
         352   20.5069599            3520   1.00000005E-03
         353   20.4432373            3530   1.00000005E-03
         354   20.3795204            3540   1.00000005E-03
         355   20.3155003            3550   1.00000005E-03
         356   20.2524624            3560   1.00000005E-03
         357   20.1897278            3570   1.00000005E-03
         358   20.1273594            3580   1.00000005E-03
         359   20.0654240            3590   1.00000005E-03
         360   20.0033379            3600   1.00000005E-03
         361   19.9415932            3610   1.00000005E-03
         362   19.8806267            3620   1.00000005E-03
         363   19.8202400            3630   1.00000005E-03
         364   19.7600193            3640   1.00000005E-03
         365   19.6987247            3650   1.00000005E-03
         366   19.6400738            3660   1.00000005E-03
         367   19.5799103            3670   1.00000005E-03
         368   19.5207081            3680   1.00000005E-03
         369   19.4616013            3690   1.00000005E-03
         370   19.4034328            3700   1.00000005E-03
         371   19.3442001            3710   1.00000005E-03
         372   19.2871208            3720   1.00000005E-03
         373   19.2291794            3730   1.00000005E-03
         374   19.1708584            3740   1.00000005E-03
         375   19.1140347            3750   1.00000005E-03
         376   19.0581570            3760   1.00000005E-03
         377   19.0003281            3770   1.00000005E-03
         378   18.9440975            3780   1.00000005E-03
         379   18.8878803            3790   1.00000005E-03
         380   18.8313904            3800   1.00000005E-03
         381   18.7772141            3810   1.00000005E-03
         382   18.7211342            3820   1.00000005E-03
         383   18.6663361            3830   1.00000005E-03
         384   18.6110058            3840   1.00000005E-03
         385   18.5574532            3850   1.00000005E-03
         386   18.5026760            3860   1.00000005E-03
         387   18.4485455            3870   1.00000005E-03
         388   18.3954525            3880   1.00000005E-03
         389   18.3416252            3890   1.00000005E-03
         390   18.2884922            3900   1.00000005E-03
         391   18.2357750            3910   1.00000005E-03
         392   18.1833591            3920   1.00000005E-03
         393   18.1315460            3930   1.00000005E-03
         394   18.0800610            3940   1.00000005E-03
         395   18.0294018            3950   1.00000005E-03
         396   17.9777508            3960   1.00000005E-03
         397   17.9278831            3970   1.00000005E-03
         398   17.8770657            3980   1.00000005E-03
         399   17.8280373            3990   1.00000005E-03
         400   17.7775841            4000   1.00000005E-03
         401   17.7284679            4010   1.00000005E-03
         402   17.6797523            4020   1.00000005E-03
         403   17.6302433            4030   1.00000005E-03
         404   17.5824680            4040   1.00000005E-03
         405   17.5340996            4050   1.00000005E-03
         406   17.4857044            4060   1.00000005E-03
         407   17.4376469            4070   1.00000005E-03
         408   17.3904324            4080   1.00000005E-03
         409   17.3425789            4090   1.00000005E-03
         410   17.2962246            4100   1.00000005E-03
         411   17.2490959            4110   1.00000005E-03
         412   17.2024174            4120   1.00000005E-03
         413   17.1563053            4130   1.00000005E-03
         414   17.1100407            4140   1.00000005E-03
         415   17.0650063            4150   1.00000005E-03
         416   17.0189133            4160   1.00000005E-03
         417   16.9725609            4170   1.00000005E-03
         418   16.9283466            4180   1.00000005E-03
         419   16.8829288            4190   1.00000005E-03
         420   16.8388729            4200   1.00000005E-03
         421   16.7930431            4210   1.00000005E-03
         422   16.7499809            4220   1.00000005E-03
         423   16.7048225            4230   1.00000005E-03
         424   16.6611481            4240   1.00000005E-03
         425   16.6173306            4250   1.00000005E-03
         426   16.5740662            4260   1.00000005E-03
         427   16.5306072            4270   1.00000005E-03
         428   16.4876213            4280   1.00000005E-03
         429   16.4449940            4290   1.00000005E-03
         430   16.4021912            4300   1.00000005E-03
         431   16.3596611            4310   1.00000005E-03
         432   16.3175735            4320   1.00000005E-03
         433   16.2752533            4330   1.00000005E-03
         434   16.2330856            4340   1.00000005E-03
         435   16.1913586            4350   1.00000005E-03
         436   16.1501122            4360   1.00000005E-03
         437   16.1088123            4370   1.00000005E-03
         438   16.0676022            4380   1.00000005E-03
         439   16.0268955            4390   1.00000005E-03
         440   15.9870291            4400   1.00000005E-03
         441   15.9470139            4410   1.00000005E-03
         442   15.9067326            4420   1.00000005E-03
         443   15.8670759            4430   1.00000005E-03
         444   15.8281221            4440   1.00000005E-03
         445   15.7881966            4450   1.00000005E-03
         446   15.7490816            4460   1.00000005E-03
         447   15.7106695            4470   1.00000005E-03
         448   15.6714430            4480   1.00000005E-03
         449   15.6326599            4490   1.00000005E-03
         450   15.5945616            4500   1.00000005E-03
         451   15.5556688            4510   1.00000005E-03
         452   15.5176744            4520   1.00000005E-03
         453   15.4792299            4530   1.00000005E-03
         454   15.4417353            4540   1.00000005E-03
         455   15.4034319            4550   1.00000005E-03
         456   15.3667097            4560   1.00000005E-03
         457   15.3290577            4570   1.00000005E-03
         458   15.2914410            4580   1.00000005E-03
         459   15.2538204            4590   1.00000005E-03
         460   15.2169847            4600   1.00000005E-03
         461   15.1803408            4610   1.00000005E-03
         462   15.1430521            4620   1.00000005E-03
         463   15.1077700            4630   1.00000005E-03
         464   15.0702190            4640   1.00000005E-03
         465   15.0340185            4650   1.00000005E-03
         466   14.9983120            4660   1.00000005E-03
         467   14.9616108            4670   1.00000005E-03
         468   14.9269390            4680   1.00000005E-03
         469   14.8902025            4690   1.00000005E-03
         470   14.8544817            4700   1.00000005E-03
         471   14.8191614            4710   1.00000005E-03
         472   14.7839003            4720   1.00000005E-03
         473   14.7489853            4730   1.00000005E-03
         474   14.7133675            4740   1.00000005E-03
         475   14.6787643            4750   1.00000005E-03
         476   14.6436043            4760   1.00000005E-03
         477   14.6088991            4770   1.00000005E-03
         478   14.5749388            4780   1.00000005E-03
         479   14.5396481            4790   1.00000005E-03
         480   14.5060968            4800   1.00000005E-03
         481   14.4716358            4810   1.00000005E-03
         482   14.4372311            4820   1.00000005E-03
         483   14.4038925            4830   1.00000005E-03
         484   14.3702021            4840   1.00000005E-03
         485   14.3367577            4850   1.00000005E-03
         486   14.3024521            4860   1.00000005E-03
         487   14.2698822            4870   1.00000005E-03
         488   14.2354527            4880   1.00000005E-03
         489   14.2033701            4890   1.00000005E-03
         490   14.1696043            4900   1.00000005E-03
         491   14.1371660            4910   1.00000005E-03
         492   14.1042080            4920   1.00000005E-03
         493   14.0719423            4930   1.00000005E-03
         494   14.0393209            4940   1.00000005E-03
         495   14.0072145            4950   1.00000005E-03
         496   13.9746838            4960   1.00000005E-03
         497   13.9419355            4970   1.00000005E-03
         498   13.9105358            4980   1.00000005E-03