 VARIABLES = X,Y,U,V,sy,w,p
 ZONE     i=         101          j=         101                       F=POINT
   0.00000000       0.00000000       0.00000000       0.00000000       0.00000000       0.00000000       0.00000000    
   9.99999978E-03   0.00000000       0.00000000       0.00000000       0.00000000       8.75069061E-04   0.00000000    
   1.99999996E-02   0.00000000       0.00000000       0.00000000       0.00000000       9.28788155E-04   1.29779637E-05
   2.99999993E-02   0.00000000       0.00000000       0.00000000       0.00000000      -7.56435504E-04   3.75287309E-05
   3.99999991E-02   0.00000000       0.00000000       0.00000000       0.00000000      -4.36363649E-03   6.36019686E-05
   4.99999970E-02   0.00000000       0.00000000       0.00000000       0.00000000      -9.77758877E-03   7.98649344E-05
   5.99999987E-02   0.00000000       0.00000000       0.00000000       0.00000000      -1.67746805E-02   7.61583069E-05
   7.00000003E-02   0.00000000       0.00000000       0.00000000       0.00000000      -2.51039434E-02   4.40941512E-05
   7.99999982E-02   0.00000000       0.00000000       0.00000000       0.00000000      -3.45212147E-02  -2.29797406E-05
   8.99999961E-02   0.00000000       0.00000000       0.00000000       0.00000000      -4.48028818E-02  -1.30197164E-04
   9.99999940E-02   0.00000000       0.00000000       0.00000000       0.00000000      -5.57505228E-02  -2.81417626E-04
  0.109999999       0.00000000       0.00000000       0.00000000       0.00000000      -6.71914071E-02  -4.79449896E-04
  0.119999997       0.00000000       0.00000000       0.00000000       0.00000000      -7.89771825E-02  -7.26241677E-04
  0.129999995       0.00000000       0.00000000       0.00000000       0.00000000      -9.09816846E-02  -1.02304260E-03
  0.140000001       0.00000000       0.00000000       0.00000000       0.00000000     -0.103098556      -1.37053314E-03
  0.149999991       0.00000000       0.00000000       0.00000000       0.00000000     -0.115238696      -1.76893792E-03
  0.159999996       0.00000000       0.00000000       0.00000000       0.00000000     -0.127327874      -2.21811444E-03
  0.170000002       0.00000000       0.00000000       0.00000000       0.00000000     -0.139304474      -2.71762768E-03
  0.179999992       0.00000000       0.00000000       0.00000000       0.00000000     -0.151117206      -3.26681067E-03
  0.189999998       0.00000000       0.00000000       0.00000000       0.00000000     -0.162723273      -3.86481290E-03
  0.199999988       0.00000000       0.00000000       0.00000000       0.00000000     -0.174086422      -4.51063504E-03
  0.209999993       0.00000000       0.00000000       0.00000000       0.00000000     -0.185175329      -5.20316232E-03
  0.219999999       0.00000000       0.00000000       0.00000000       0.00000000     -0.195961922      -5.94118191E-03
  0.229999989       0.00000000       0.00000000       0.00000000       0.00000000     -0.206420183      -6.72339369E-03
  0.239999995       0.00000000       0.00000000       0.00000000       0.00000000     -0.216524780      -7.54842209E-03
  0.250000000       0.00000000       0.00000000       0.00000000       0.00000000     -0.226249933      -8.41481332E-03
  0.259999990       0.00000000       0.00000000       0.00000000       0.00000000     -0.235568449      -9.32103116E-03
  0.269999981       0.00000000       0.00000000       0.00000000       0.00000000     -0.244450942      -1.02654528E-02
  0.280000001       0.00000000       0.00000000       0.00000000       0.00000000     -0.252864987      -1.12463534E-02
  0.289999992       0.00000000       0.00000000       0.00000000       0.00000000     -0.260774612      -1.22618945E-02
  0.299999982       0.00000000       0.00000000       0.00000000       0.00000000     -0.268139899      -1.33101027E-02
  0.310000002       0.00000000       0.00000000       0.00000000       0.00000000     -0.274916530      -1.43888528E-02
  0.319999993       0.00000000       0.00000000       0.00000000       0.00000000     -0.281055778      -1.54958470E-02
  0.329999983       0.00000000       0.00000000       0.00000000       0.00000000     -0.286504388      -1.66285951E-02
  0.340000004       0.00000000       0.00000000       0.00000000       0.00000000     -0.291204929      -1.77843906E-02
  0.349999994       0.00000000       0.00000000       0.00000000       0.00000000     -0.295095921      -1.89602897E-02
  0.359999985       0.00000000       0.00000000       0.00000000       0.00000000     -0.298112512      -2.01530922E-02
  0.370000005       0.00000000       0.00000000       0.00000000       0.00000000     -0.300187021      -2.13593338E-02
  0.379999995       0.00000000       0.00000000       0.00000000       0.00000000     -0.301249951      -2.25752499E-02
  0.389999986       0.00000000       0.00000000       0.00000000       0.00000000     -0.301230878      -2.37967875E-02
  0.399999976       0.00000000       0.00000000       0.00000000       0.00000000     -0.300060093      -2.50195898E-02
  0.409999996       0.00000000       0.00000000       0.00000000       0.00000000     -0.297669411      -2.62389928E-02
  0.419999987       0.00000000       0.00000000       0.00000000       0.00000000     -0.293994337      -2.74500344E-02
  0.429999977       0.00000000       0.00000000       0.00000000       0.00000000     -0.288975328      -2.86474675E-02
  0.439999998       0.00000000       0.00000000       0.00000000       0.00000000     -0.282560021      -2.98257731E-02
  0.449999988       0.00000000       0.00000000       0.00000000       0.00000000     -0.274704754      -3.09791956E-02
  0.459999979       0.00000000       0.00000000       0.00000000       0.00000000     -0.265376896      -3.21017727E-02
  0.469999999       0.00000000       0.00000000       0.00000000       0.00000000     -0.254556388      -3.31873856E-02
  0.479999989       0.00000000       0.00000000       0.00000000       0.00000000     -0.242237806      -3.42298076E-02
  0.489999980       0.00000000       0.00000000       0.00000000       0.00000000     -0.228431955      -3.52227688E-02
  0.500000000       0.00000000       0.00000000       0.00000000       0.00000000     -0.213167205      -3.61600257E-02
  0.509999990       0.00000000       0.00000000       0.00000000       0.00000000     -0.196490750      -3.70354280E-02
  0.519999981       0.00000000       0.00000000       0.00000000       0.00000000     -0.178469092      -3.78430188E-02
  0.529999971       0.00000000       0.00000000       0.00000000       0.00000000     -0.159188554      -3.85771021E-02
  0.539999962       0.00000000       0.00000000       0.00000000       0.00000000     -0.138754860      -3.92323323E-02
  0.550000012       0.00000000       0.00000000       0.00000000       0.00000000     -0.117292412      -3.98038030E-02
  0.560000002       0.00000000       0.00000000       0.00000000       0.00000000      -9.49430466E-02  -4.02871333E-02
  0.569999993       0.00000000       0.00000000       0.00000000       0.00000000      -7.18639866E-02  -4.06785421E-02
  0.579999983       0.00000000       0.00000000       0.00000000       0.00000000      -4.82255854E-02  -4.09749076E-02
  0.589999974       0.00000000       0.00000000       0.00000000       0.00000000      -2.42083855E-02  -4.11738381E-02
  0.599999964       0.00000000       0.00000000       0.00000000       0.00000000      -0.00000000      -4.12737131E-02
  0.610000014       0.00000000       0.00000000       0.00000000       0.00000000      -0.00000000      -4.12737131E-02
  0.620000005       0.00000000       0.00000000       0.00000000       0.00000000      -0.00000000      -4.12737131E-02
  0.629999995       0.00000000       0.00000000       0.00000000       0.00000000      -0.00000000      -4.12737131E-02
  0.639999986       0.00000000       0.00000000       0.00000000       0.00000000      -0.00000000      -4.12737131E-02
  0.649999976       0.00000000       0.00000000       0.00000000       0.00000000      -0.00000000      -4.12737131E-02
  0.659999967       0.00000000       0.00000000       0.00000000       0.00000000      -0.00000000      -4.12737131E-02
  0.669999957       0.00000000       0.00000000       0.00000000       0.00000000      -0.00000000      -4.12737131E-02
  0.680000007       0.00000000       0.00000000       0.00000000       0.00000000      -0.00000000      -4.12737131E-02
  0.689999998       0.00000000       0.00000000       0.00000000       0.00000000      -0.00000000      -4.12737131E-02
  0.699999988       0.00000000       0.00000000       0.00000000       0.00000000      -0.00000000      -4.12737131E-02
  0.709999979       0.00000000       0.00000000       0.00000000       0.00000000      -0.00000000      -4.12737131E-02
  0.719999969       0.00000000       0.00000000       0.00000000       0.00000000      -0.00000000      -4.12737131E-02
  0.729999959       0.00000000       0.00000000       0.00000000       0.00000000      -0.00000000      -4.12737131E-02
  0.740000010       0.00000000       0.00000000       0.00000000       0.00000000      -0.00000000      -4.12737131E-02
  0.750000000       0.00000000       0.00000000       0.00000000       0.00000000      -0.00000000      -4.12737131E-02
  0.759999990       0.00000000       0.00000000       0.00000000       0.00000000      -0.00000000      -4.12737131E-02
  0.769999981       0.00000000       0.00000000       0.00000000       0.00000000      -0.00000000      -4.12737131E-02
  0.779999971       0.00000000       0.00000000       0.00000000       0.00000000      -0.00000000      -4.12737131E-02
  0.789999962       0.00000000       0.00000000       0.00000000       0.00000000      -0.00000000      -4.12737131E-02
  0.799999952       0.00000000       0.00000000       0.00000000       0.00000000      -0.00000000      -4.12737131E-02
  0.810000002       0.00000000       0.00000000       0.00000000       0.00000000      -2.41443887E-03  -4.12737131E-02
  0.819999993       0.00000000       0.00000000       0.00000000       0.00000000      -3.69762699E-03  -4.12860848E-02
  0.829999983       0.00000000       0.00000000       0.00000000       0.00000000      -4.76216944E-03  -4.13041413E-02
  0.839999974       0.00000000       0.00000000       0.00000000       0.00000000      -5.63015323E-03  -4.13264744E-02
  0.849999964       0.00000000       0.00000000       0.00000000       0.00000000      -6.28063921E-03  -4.13522460E-02
  0.859999955       0.00000000       0.00000000       0.00000000       0.00000000      -6.68999879E-03  -4.13805619E-02
  0.870000005       0.00000000       0.00000000       0.00000000       0.00000000      -6.84341509E-03  -4.14103679E-02
  0.879999995       0.00000000       0.00000000       0.00000000       0.00000000      -6.73868041E-03  -4.14405018E-02
  0.889999986       0.00000000       0.00000000       0.00000000       0.00000000      -6.38753828E-03  -4.14697714E-02
  0.899999976       0.00000000       0.00000000       0.00000000       0.00000000      -5.81590785E-03  -4.14970256E-02
  0.909999967       0.00000000       0.00000000       0.00000000       0.00000000      -5.06332377E-03  -4.15212363E-02
  0.919999957       0.00000000       0.00000000       0.00000000       0.00000000      -4.18165419E-03  -4.15415615E-02
  0.930000007       0.00000000       0.00000000       0.00000000       0.00000000      -3.23307607E-03  -4.15574238E-02
  0.939999998       0.00000000       0.00000000       0.00000000       0.00000000      -2.28723208E-03  -4.15685661E-02
  0.949999988       0.00000000       0.00000000       0.00000000       0.00000000      -1.41738995E-03  -4.15750965E-02
  0.959999979       0.00000000       0.00000000       0.00000000       0.00000000      -6.95163792E-04  -4.15775329E-02
  0.969999969       0.00000000       0.00000000       0.00000000       0.00000000      -1.82673408E-04  -4.15768027E-02
  0.979999959       0.00000000       0.00000000       0.00000000       0.00000000       8.06823155E-05  -4.15742286E-02
  0.989999950       0.00000000       0.00000000       0.00000000       0.00000000       1.03966013E-04  -4.15713973E-02
   1.00000000       0.00000000       0.00000000       0.00000000       0.00000000       0.00000000      -4.15697880E-02
   0.00000000       9.99999978E-03   0.00000000       0.00000000       0.00000000       8.75069061E-04   0.00000000    
   9.99999978E-03   9.99999978E-03  -2.90024104E-06   2.32197044E-06  -4.37534524E-08  -8.53205449E-04   0.00000000    
   1.99999996E-02   9.99999978E-03   1.58248542E-06  -4.07876132E-06  -4.64394070E-08  -2.73739826E-03   1.49215020E-05
   2.99999993E-02   9.99999978E-03   1.86533744E-05  -1.32310615E-05   3.78217742E-08  -5.42234723E-03   4.24375212E-05
   3.99999991E-02   9.99999978E-03   4.95610038E-05  -2.25528838E-05   2.18181825E-07  -9.22621973E-03   7.31652181E-05
   4.99999970E-02   9.99999978E-03   9.36872311E-05  -3.10276082E-05   4.88879436E-07  -1.42313512E-02   9.87113817E-05
   5.99999987E-02   9.99999978E-03   1.49606552E-04  -3.83158877E-05   8.38733968E-07  -2.03860253E-02   1.12205773E-04
   7.00000003E-02   9.99999978E-03   2.15613094E-04  -4.43663339E-05   1.25519716E-06  -2.75720116E-02   1.08247346E-04
   7.99999982E-02   9.99999978E-03   2.89978198E-04  -4.92473482E-05   1.72606065E-06  -3.56438309E-02   8.26931864E-05
   8.99999961E-02   9.99999978E-03   3.71072267E-04  -5.30732686E-05   2.24014411E-06  -4.44503352E-02   3.24339417E-05
   9.99999940E-02   9.99999978E-03   4.57417598E-04  -5.59713153E-05   2.78752600E-06  -5.38461022E-02  -4.48041865E-05
  0.109999999       9.99999978E-03   5.47705742E-04  -5.80666565E-05   3.35957043E-06  -6.36970326E-02  -1.50624139E-04
  0.119999997       9.99999978E-03   6.40797254E-04  -5.94756893E-05   3.94885910E-06  -7.38827363E-02  -2.86091003E-04
  0.129999995       9.99999978E-03   7.35711539E-04  -6.03034350E-05   4.54908422E-06  -8.42970982E-02  -4.51842003E-04
  0.140000001       9.99999978E-03   8.31613434E-04  -6.06425165E-05   5.15492775E-06  -9.48478058E-02  -6.48172514E-04
  0.149999991       9.99999978E-03   9.27796238E-04  -6.05733039E-05   5.76193452E-06 -0.105455332      -8.75110214E-04
  0.159999996       9.99999978E-03   1.02366600E-03  -6.01644388E-05   6.36639379E-06 -0.116051644      -1.13247056E-03
  0.170000002       9.99999978E-03   1.11872458E-03  -5.94733137E-05   6.96522329E-06 -0.126578748      -1.41990522E-03
  0.179999992       9.99999978E-03   1.21255452E-03  -5.85469934E-05   7.55586007E-06 -0.136987180      -1.73693884E-03
  0.189999998       9.99999978E-03   1.30480318E-03  -5.74230398E-05   8.13616316E-06 -0.147234589      -2.08299980E-03
  0.199999988       9.99999978E-03   1.39517034E-03  -5.61301495E-05   8.70432086E-06 -0.157284319      -2.45743967E-03
  0.209999993       9.99999978E-03   1.48339395E-03  -5.46887350E-05   9.25876611E-06 -0.167104065      -2.85955425E-03
  0.219999999       9.99999978E-03   1.56923872E-03  -5.31121259E-05   9.79809556E-06 -0.176664591      -3.28859314E-03
  0.229999989       9.99999978E-03   1.65248592E-03  -5.14071435E-05   1.03210086E-05 -0.185938641      -3.74376541E-03
  0.239999995       9.99999978E-03   1.73292228E-03  -4.95743734E-05   1.08262384E-05 -0.194899842      -4.22424683E-03
  0.250000000       9.99999978E-03   1.81033311E-03  -4.76091845E-05   1.13124961E-05 -0.203521743      -4.72917501E-03
  0.259999990       9.99999978E-03   1.88449235E-03  -4.55025220E-05   1.17784220E-05 -0.211777031      -5.25765168E-03
  0.269999981       9.99999978E-03   1.95515761E-03  -4.32413362E-05   1.22225465E-05 -0.219636723      -5.80873154E-03
  0.280000001       9.99999978E-03   2.02206406E-03  -4.08092092E-05   1.26432487E-05 -0.227069616      -6.38141809E-03
  0.289999992       9.99999978E-03   2.08491948E-03  -3.81873178E-05   1.30387307E-05 -0.234041706      -6.97465288E-03
  0.299999982       9.99999978E-03   2.14340049E-03  -3.53547875E-05   1.34069951E-05 -0.240515932      -7.58730527E-03
  0.310000002       9.99999978E-03   2.19715084E-03  -3.22896558E-05   1.37458264E-05 -0.246451750      -8.21815711E-03
  0.319999993       9.99999978E-03   2.24578031E-03  -2.89696345E-05   1.40527882E-05 -0.251805156      -8.86589102E-03
  0.329999983       9.99999978E-03   2.28886399E-03  -2.53729013E-05   1.43252191E-05 -0.256528586      -9.52907838E-03
  0.340000004       9.99999978E-03   2.32594460E-03  -2.14788543E-05   1.45602462E-05 -0.260571182      -1.02061639E-02
  0.349999994       9.99999978E-03   2.35653366E-03  -1.72689852E-05   1.47547962E-05 -0.263878971      -1.08954525E-02
  0.359999985       9.99999978E-03   2.38011777E-03  -1.27277417E-05   1.49056259E-05 -0.266395420      -1.15950946E-02
  0.370000005       9.99999978E-03   2.39616097E-03  -7.84352778E-06   1.50093510E-05 -0.268061996      -1.23030823E-02
  0.379999995       9.99999978E-03   2.40411586E-03  -2.60965862E-06   1.50624965E-05 -0.268818885      -1.30172279E-02
  0.389999986       9.99999978E-03   2.40342761E-03   2.97463885E-06   1.50615442E-05 -0.268606007      -1.37351695E-02
  0.399999976       9.99999978E-03   2.39354745E-03   8.90368028E-06   1.50030037E-05 -0.267364115      -1.44543545E-02
  0.409999996       9.99999978E-03   2.37394101E-03   1.51643690E-05   1.48834706E-05 -0.265035897      -1.51720485E-02
  0.419999987       9.99999978E-03   2.34410283E-03   2.17351953E-05   1.46997163E-05 -0.261567324      -1.58853289E-02
  0.429999977       9.99999978E-03   2.30356841E-03   2.85857823E-05   1.44487667E-05 -0.256909281      -1.65910963E-02
  0.439999998       9.99999978E-03   2.25193007E-03   3.56764322E-05   1.41280007E-05 -0.251018971      -1.72860846E-02
  0.449999988       9.99999978E-03   2.18884996E-03   4.29578467E-05   1.37352381E-05 -0.243861482      -1.79668758E-02
  0.459999979       9.99999978E-03   2.11407756E-03   5.03709562E-05   1.32688438E-05 -0.235411569      -1.86299197E-02
  0.469999999       9.99999978E-03   2.02746247E-03   5.78476829E-05   1.27278190E-05 -0.225655049      -1.92715656E-02
  0.479999989       9.99999978E-03   1.92896917E-03   6.53110910E-05   1.21118901E-05 -0.214590371      -1.98880900E-02
  0.489999980       9.99999978E-03   1.81869115E-03   7.26764920E-05   1.14215973E-05 -0.202229932      -2.04757340E-02
  0.500000000       9.99999978E-03   1.69685995E-03   7.98530018E-05   1.06583602E-05 -0.188601255      -2.10307445E-02
  0.509999990       9.99999978E-03   1.56385510E-03   8.67452909E-05   9.82453730E-06 -0.173747763      -2.15494242E-02
  0.519999981       9.99999978E-03   1.42020837E-03   9.32554976E-05   8.92345452E-06 -0.157729387      -2.20281798E-02
  0.529999971       9.99999978E-03   1.26660708E-03   9.92856076E-05   7.95942742E-06 -0.140622675      -2.24635713E-02
  0.539999962       9.99999978E-03   1.10389071E-03   1.04740342E-04   6.93774246E-06 -0.122520566      -2.28523668E-02
  0.550000012       9.99999978E-03   9.33045812E-04   1.09529516E-04   5.86462056E-06 -0.103531644      -2.31915955E-02
  0.560000002       9.99999978E-03   7.55194749E-04   1.13571063E-04   4.74715216E-06  -8.37789997E-02  -2.34786011E-02
  0.569999993       9.99999978E-03   5.71581128E-04   1.16793650E-04   3.59319938E-06  -6.33986518E-02  -2.37110872E-02
  0.579999983       9.99999978E-03   3.83550796E-04   1.19139011E-04   2.41127918E-06  -4.25374582E-02  -2.38871593E-02
  0.589999974       9.99999978E-03   1.92530031E-04   1.20563964E-04   1.21041921E-06  -2.13508327E-02  -2.40053628E-02
  0.599999964       9.99999978E-03   0.00000000       6.05209607E-05   0.00000000      -2.05866923E-03  -2.40647141E-02
  0.610000014       9.99999978E-03   0.00000000       0.00000000       0.00000000       7.64147437E-04  -2.38721836E-02
  0.620000005       9.99999978E-03   0.00000000       0.00000000       0.00000000       1.50942861E-03  -2.38721836E-02
  0.629999995       9.99999978E-03   0.00000000       0.00000000       0.00000000       2.21744692E-03  -2.38721836E-02
  0.639999986       9.99999978E-03   0.00000000       0.00000000       0.00000000       2.87073315E-03  -2.38721836E-02
  0.649999976       9.99999978E-03   0.00000000       0.00000000       0.00000000       3.45317996E-03  -2.38721836E-02
  0.659999967       9.99999978E-03   0.00000000       0.00000000       0.00000000       3.95043893E-03  -2.38721836E-02
  0.669999957       9.99999978E-03   0.00000000       0.00000000       0.00000000       4.35027434E-03  -2.38721836E-02
  0.680000007       9.99999978E-03   0.00000000       0.00000000       0.00000000       4.64286748E-03  -2.38721836E-02
  0.689999998       9.99999978E-03   0.00000000       0.00000000       0.00000000       4.82104952E-03  -2.38721836E-02
  0.699999988       9.99999978E-03   0.00000000       0.00000000       0.00000000       4.88047861E-03  -2.38721836E-02
  0.709999979       9.99999978E-03   0.00000000       0.00000000       0.00000000       4.81974008E-03  -2.38721836E-02
  0.719999969       9.99999978E-03   0.00000000       0.00000000       0.00000000       4.64037620E-03  -2.38721836E-02
  0.729999959       9.99999978E-03   0.00000000       0.00000000       0.00000000       4.34684567E-03  -2.38721836E-02
  0.740000010       9.99999978E-03   0.00000000       0.00000000       0.00000000       3.94640770E-03  -2.38721836E-02
  0.750000000       9.99999978E-03   0.00000000       0.00000000       0.00000000       3.44894151E-03  -2.38721836E-02
  0.759999990       9.99999978E-03   0.00000000       0.00000000       0.00000000       2.86670215E-03  -2.38721836E-02
  0.769999981       9.99999978E-03   0.00000000       0.00000000       0.00000000       2.21401779E-03  -2.38721836E-02
  0.779999971       9.99999978E-03   0.00000000       0.00000000       0.00000000       1.50693709E-03  -2.38721836E-02
  0.789999962       9.99999978E-03   0.00000000       0.00000000       0.00000000       7.62837590E-04  -2.38721836E-02
  0.799999952       9.99999978E-03   0.00000000      -6.03609669E-06   0.00000000      -8.46789480E-05  -2.38721836E-02
  0.810000002       9.99999978E-03   1.81739888E-05  -9.24406777E-06   1.20721936E-07  -1.60962704E-03  -2.38540098E-02
  0.819999993       9.99999978E-03   2.83079407E-05  -5.86932674E-06   1.84881344E-07  -2.83661857E-03  -2.38688085E-02
  0.829999983       9.99999978E-03   3.68764340E-05  -4.83131544E-06   2.38108470E-07  -3.82139604E-03  -2.38804258E-02
  0.839999974       9.99999978E-03   4.38689349E-05  -3.79617404E-06   2.81507653E-07  -4.60670283E-03  -2.38944944E-02
  0.849999964       9.99999978E-03   4.91255742E-05  -2.64961386E-06   3.14031951E-07  -5.19615132E-03  -2.39106268E-02
  0.859999955       9.99999978E-03   5.24851202E-05  -1.40693999E-06   3.34499930E-07  -5.58256824E-03  -2.39282809E-02
  0.870000005       9.99999978E-03   5.38487548E-05  -1.21704602E-07   3.42170750E-07  -5.76042850E-03  -2.39467844E-02
  0.879999995       9.99999978E-03   5.32083177E-05   1.13969213E-06   3.36934022E-07  -5.73126972E-03  -2.39653885E-02
  0.889999986       9.99999978E-03   5.06584183E-05   2.30693195E-06   3.19376909E-07  -5.50597347E-03  -2.39833184E-02
  0.899999976       9.99999978E-03   4.63993092E-05   3.31053661E-06   2.90795384E-07  -5.10545494E-03  -2.39998270E-02
  0.909999967       9.99999978E-03   4.07328916E-05   4.08563346E-06   2.53166178E-07  -4.56034066E-03  -2.40142439E-02
  0.919999957       9.99999978E-03   3.40525621E-05   4.57561873E-06   2.09082714E-07  -3.90983280E-03  -2.40260232E-02
  0.930000007       9.99999978E-03   2.68268286E-05   4.73605587E-06   1.61653801E-07  -3.19980131E-03  -2.40347888E-02
  0.939999998       9.99999978E-03   1.95762368E-05   4.53921530E-06   1.14361598E-07  -2.48002470E-03  -2.40403749E-02
  0.949999988       9.99999978E-03   1.28422616E-05   3.98017073E-06   7.08694969E-08  -1.80040149E-03  -2.40428634E-02
  0.959999979       9.99999978E-03   7.14540829E-06   3.08679137E-06   3.47581874E-08  -1.20574457E-03  -2.40426101E-02
  0.969999969       9.99999978E-03   2.92631944E-06   1.93961523E-06   9.13366982E-09  -7.28453044E-04  -2.40402631E-02
  0.979999959       9.99999978E-03   4.56447907E-07   7.16598549E-07  -4.03411571E-09  -3.77993856E-04  -2.40367688E-02
  0.989999950       9.99999978E-03  -3.10021761E-07  -2.01705788E-07  -5.19830046E-09  -1.26567349E-04  -2.40333397E-02
   1.00000000       9.99999978E-03   0.00000000       0.00000000       0.00000000       1.03966013E-04  -2.40313411E-02
   0.00000000       1.99999996E-02   0.00000000       0.00000000       0.00000000       1.16009638E-03  -1.46938355E-05
   9.99999978E-03   1.99999996E-02   1.73805222E-06  -1.58248542E-06  -5.80048187E-08  -2.42554978E-03  -1.46938355E-05
   1.99999996E-02   1.99999996E-02   1.80928073E-05  -2.15536147E-05   3.16497086E-08  -5.60280029E-03   2.02196543E-06
   2.99999993E-02   1.99999996E-02   5.41977934E-05  -4.79785194E-05   3.73067479E-07  -8.96931253E-03   2.70770397E-05
   3.99999991E-02   1.99999996E-02   1.11450179E-04  -7.50338586E-05   9.91220077E-07  -1.28876222E-02   5.59326472E-05
   4.99999970E-02   1.99999996E-02   1.89077517E-04  -1.00045545E-04   1.87374462E-06  -1.75359137E-02   8.46984112E-05
   5.99999987E-02   1.99999996E-02   2.85171118E-04  -1.21925863E-04   2.99213093E-06  -2.29668636E-02   1.10270885E-04
   7.00000003E-02   1.99999996E-02   3.97319789E-04  -1.40371660E-04   4.31226181E-06  -2.91557144E-02   1.30293221E-04
   7.99999982E-02   1.99999996E-02   5.22977847E-04  -1.55459158E-04   5.79956395E-06  -3.60340625E-02   1.43041922E-04
   8.99999961E-02   1.99999996E-02   6.59668702E-04  -1.67439386E-04   7.42144493E-06  -4.35118154E-02   1.47302155E-04
   9.99999940E-02   1.99999996E-02   8.05090298E-04  -1.76633519E-04   9.14835164E-06  -5.14908955E-02   1.42255827E-04
  0.109999999       1.99999996E-02   9.57163691E-04  -1.83379641E-04   1.09541152E-05  -5.98734170E-02   1.27389852E-04
  0.119999997       1.99999996E-02   1.11404783E-03  -1.88005797E-04   1.28159445E-05  -6.85663745E-02   1.02421327E-04
  0.129999995       1.99999996E-02   1.27413671E-03  -1.90816179E-04   1.47142309E-05  -7.74841160E-02   6.72424430E-05
  0.140000001       1.99999996E-02   1.43604458E-03  -1.92084655E-04   1.66322679E-05  -8.65493566E-02   2.18723471E-05
  0.149999991       1.99999996E-02   1.59858586E-03  -1.92052539E-04   1.85559238E-05  -9.56934541E-02  -3.35762707E-05
  0.159999996       1.99999996E-02   1.76075322E-03  -1.90928404E-04   2.04733187E-05 -0.104855947      -9.89238324E-05
  0.170000002       1.99999996E-02   1.92169263E-03  -1.88888502E-04   2.23744919E-05 -0.113983966      -1.73946872E-04
  0.179999992       1.99999996E-02   2.08068127E-03  -1.86078614E-04   2.42510887E-05 -0.123031318      -2.58391112E-04
  0.189999998       1.99999996E-02   2.23710295E-03  -1.82615899E-04   2.60960642E-05 -0.131957531      -3.51986440E-04
  0.199999988       1.99999996E-02   2.39042705E-03  -1.78590664E-04   2.79034066E-05 -0.140726820      -4.54453751E-04
  0.209999993       1.99999996E-02   2.54018744E-03  -1.74068380E-04   2.96678772E-05 -0.149307176      -5.65511291E-04
  0.219999999       1.99999996E-02   2.68596411E-03  -1.69091989E-04   3.13847740E-05 -0.157669336      -6.84877683E-04
  0.229999989       1.99999996E-02   2.82736379E-03  -1.63683580E-04   3.30497169E-05 -0.165785849      -8.12276558E-04
  0.239999995       1.99999996E-02   2.96400511E-03  -1.57847171E-04   3.46584457E-05 -0.173630238      -9.47434048E-04
  0.250000000       1.99999996E-02   3.09550483E-03  -1.51570028E-04   3.62066603E-05 -0.181176260      -1.09007757E-03
  0.259999990       1.99999996E-02   3.22146202E-03  -1.44824662E-04   3.76898461E-05 -0.188397124      -1.23993971E-03
  0.269999981       1.99999996E-02   3.34144989E-03  -1.37571813E-04   3.91031535E-05 -0.195264965      -1.39674637E-03
  0.280000001       1.99999996E-02   3.45500489E-03  -1.29761800E-04   4.04412822E-05 -0.201750219      -1.56021956E-03
  0.289999992       1.99999996E-02   3.56161967E-03  -1.21336234E-04   4.16983894E-05 -0.207821280      -1.73007033E-03
  0.299999982       1.99999996E-02   3.66073567E-03  -1.12231282E-04   4.28680069E-05 -0.213444188      -1.90599717E-03
  0.310000002       1.99999996E-02   3.75174056E-03  -1.02380000E-04   4.39430150E-05 -0.218582258      -2.08767597E-03
  0.319999993       1.99999996E-02   3.83396656E-03  -9.17132638E-05   4.49156068E-05 -0.223196208      -2.27475748E-03
  0.329999983       1.99999996E-02   3.90668819E-03  -8.01641363E-05   4.57772803E-05 -0.227243990      -2.46686232E-03
  0.340000004       1.99999996E-02   3.96912824E-03  -6.76696800E-05   4.65188896E-05 -0.230681002      -2.66357022E-03
  0.349999994       1.99999996E-02   4.02045948E-03  -5.41731424E-05   4.71306739E-05 -0.233460367      -2.86442204E-03
  0.359999985       1.99999996E-02   4.05980973E-03  -3.96272299E-05   4.76023524E-05 -0.235533223      -3.06891417E-03
  0.370000005       1.99999996E-02   4.08627745E-03  -2.39981091E-05   4.79232185E-05 -0.236849383      -3.27647850E-03
  0.379999995       1.99999996E-02   4.09893692E-03  -7.26668077E-06   4.80823146E-05 -0.237357885      -3.48650198E-03
  0.389999986       1.99999996E-02   4.09685541E-03   1.05683284E-05   4.80685521E-05 -0.237007901      -3.69830476E-03
  0.399999976       1.99999996E-02   4.07911045E-03   2.94867277E-05   4.78709480E-05 -0.235749498      -3.91114177E-03
  0.409999996       1.99999996E-02   4.04480565E-03   4.94446795E-05   4.74788176E-05 -0.233534813      -4.12420835E-03
  0.419999987       1.99999996E-02   3.99309490E-03   7.03725163E-05   4.68820544E-05 -0.230319098      -4.33662860E-03
  0.429999977       1.99999996E-02   3.92320286E-03   9.21727406E-05   4.60713673E-05 -0.226061970      -4.54746466E-03
  0.439999998       1.99999996E-02   3.83445015E-03   1.14718387E-04   4.50385996E-05 -0.220728770      -4.75571631E-03